 Entering Gaussian System, Link 0=g16
 Input=/bigdata/rhome/djo04747/Documents/Gaussian/formamide KIE/formamide_gs_hf631gd_P.gjf
 Output=/bigdata/rhome/djo04747/Documents/Gaussian/formamide KIE/formamide_gs_hf631gd_P.log
 Initial command:
 /opt/linux/rocky/8/software/gaussian/16c01_avx2/g16/l1.exe "/scratch/djo04747/17449/Gau-164461.inp" -scrdir="/scratch/djo04747/17449/"
 Entering Link 1 = /opt/linux/rocky/8/software/gaussian/16c01_avx2/g16/l1.exe PID=    164463.
  
 Copyright (c) 1988-2019, Gaussian, Inc.  All Rights Reserved.
  
 This is part of the Gaussian(R) 16 program.  It is based on
 the Gaussian(R) 09 system (copyright 2009, Gaussian, Inc.),
 the Gaussian(R) 03 system (copyright 2003, Gaussian, Inc.),
 the Gaussian(R) 98 system (copyright 1998, Gaussian, Inc.),
 the Gaussian(R) 94 system (copyright 1995, Gaussian, Inc.),
 the Gaussian 92(TM) system (copyright 1992, Gaussian, Inc.),
 the Gaussian 90(TM) system (copyright 1990, Gaussian, Inc.),
 the Gaussian 88(TM) system (copyright 1988, Gaussian, Inc.),
 the Gaussian 86(TM) system (copyright 1986, Carnegie Mellon
 University), and the Gaussian 82(TM) system (copyright 1983,
 Carnegie Mellon University). Gaussian is a federally registered
 trademark of Gaussian, Inc.
  
 This software contains proprietary and confidential information,
 including trade secrets, belonging to Gaussian, Inc.
  
 This software is provided under written license and may be
 used, copied, transmitted, or stored only in accord with that
 written license.
  
 The following legend is applicable only to US Government
 contracts under FAR:
  
                    RESTRICTED RIGHTS LEGEND
  
 Use, reproduction and disclosure by the US Government is
 subject to restrictions as set forth in subparagraphs (a)
 and (c) of the Commercial Computer Software - Restricted
 Rights clause in FAR 52.227-19.
  
 Gaussian, Inc.
 340 Quinnipiac St., Bldg. 40, Wallingford CT 06492
  
  
 ---------------------------------------------------------------
 Warning -- This program may not be used in any manner that
 competes with the business of Gaussian, Inc. or will provide
 assistance to any competitor of Gaussian, Inc.  The licensee
 of this program is prohibited from giving any competitor of
 Gaussian, Inc. access to this program.  By using this program,
 the user acknowledges that Gaussian, Inc. is engaged in the
 business of creating and licensing software in the field of
 computational chemistry and represents and warrants to the
 licensee that it is not a competitor of Gaussian, Inc. and that
 it will not use this program in any manner prohibited above.
 ---------------------------------------------------------------
  

 Cite this work as:
 Gaussian 16, Revision C.01,
 M. J. Frisch, G. W. Trucks, H. B. Schlegel, G. E. Scuseria, 
 M. A. Robb, J. R. Cheeseman, G. Scalmani, V. Barone, 
 G. A. Petersson, H. Nakatsuji, X. Li, M. Caricato, A. V. Marenich, 
 J. Bloino, B. G. Janesko, R. Gomperts, B. Mennucci, H. P. Hratchian, 
 J. V. Ortiz, A. F. Izmaylov, J. L. Sonnenberg, D. Williams-Young, 
 F. Ding, F. Lipparini, F. Egidi, J. Goings, B. Peng, A. Petrone, 
 T. Henderson, D. Ranasinghe, V. G. Zakrzewski, J. Gao, N. Rega, 
 G. Zheng, W. Liang, M. Hada, M. Ehara, K. Toyota, R. Fukuda, 
 J. Hasegawa, M. Ishida, T. Nakajima, Y. Honda, O. Kitao, H. Nakai, 
 T. Vreven, K. Throssell, J. A. Montgomery, Jr., J. E. Peralta, 
 F. Ogliaro, M. J. Bearpark, J. J. Heyd, E. N. Brothers, K. N. Kudin, 
 V. N. Staroverov, T. A. Keith, R. Kobayashi, J. Normand, 
 K. Raghavachari, A. P. Rendell, J. C. Burant, S. S. Iyengar, 
 J. Tomasi, M. Cossi, J. M. Millam, M. Klene, C. Adamo, R. Cammi, 
 J. W. Ochterski, R. L. Martin, K. Morokuma, O. Farkas, 
 J. B. Foresman, and D. J. Fox, Gaussian, Inc., Wallingford CT, 2019.
 
 ******************************************
 Gaussian 16:  ES64L-G16RevC.01  3-Jul-2019
                13-Mar-2025 
 ******************************************
 %nprocshared=4
 Will use up to    4 processors via shared memory.
 %chk=formamide_gs_hf631gd_P.chk
 ------------------------
 #P opt freq rhf/6-31g(d)
 ------------------------
 1/18=20,19=15,38=1/1,3;
 2/9=110,12=2,17=6,18=5,40=1/2;
 3/5=1,6=6,7=1,11=1,25=1,30=1,71=1,116=1/1,2,3;
 4//1;
 5/5=2,38=5/2;
 6/7=2,8=2,9=2,10=2,28=1/1;
 7//1,2,3,16;
 1/18=20,19=15/3(2);
 2/9=110/2;
 99//99;
 2/9=110/2;
 3/5=1,6=6,7=1,11=1,25=1,30=1,71=1,116=1/1,2,3;
 4/5=5,16=3,69=1/1;
 5/5=2,38=5/2;
 7//1,2,3,16;
 1/18=20,19=15/3(-5);
 2/9=110/2;
 6/7=2,8=2,9=2,10=2,19=2,28=1/1;
 99/9=1/99;
 Leave Link    1 at Thu Mar 13 17:51:49 2025, MaxMem=           0 cpu:               0.1 elap:               0.1
 (Enter /opt/linux/rocky/8/software/gaussian/16c01_avx2/g16/l101.exe)
 ----------------------
 formamide gs structure
 ----------------------
 Symbolic Z-matrix:
 Charge =  0 Multiplicity = 1
 H                     0.15233   1.47224   0.00005 
 C                     0.16465   0.38155   0. 
 O                     1.17963  -0.24515   0.00009 
 N                    -1.07328  -0.15301  -0.00056 
 H                    -1.17595  -1.14322   0.00116 
 H                    -1.88834   0.41395   0.00198 
 
 ITRead=  0  0  0  0  0  0
 MicOpt= -1 -1 -1 -1 -1 -1
 NAtoms=      6 NQM=        6 NQMF=       0 NMMI=      0 NMMIF=      0
                NMic=       0 NMicF=      0.
                    Isotopes and Nuclear Properties:
 (Nuclear quadrupole moments (NQMom) in fm**2, nuclear magnetic moments (NMagM)
  in nuclear magnetons)

  Atom         1           2           3           4           5           6
 IAtWgt=           1          12          16          14           1           1
 AtmWgt=   1.0078250  12.0000000  15.9949146  14.0030740   1.0078250   1.0078250
 NucSpn=           1           0           0           2           1           1
 AtZEff=  -0.0000000  -0.0000000  -0.0000000  -0.0000000  -0.0000000  -0.0000000
 NQMom=    0.0000000   0.0000000   0.0000000   2.0440000   0.0000000   0.0000000
 NMagM=    2.7928460   0.0000000   0.0000000   0.4037610   2.7928460   2.7928460
 AtZNuc=   1.0000000   6.0000000   8.0000000   7.0000000   1.0000000   1.0000000
 Leave Link  101 at Thu Mar 13 17:51:50 2025, MaxMem=   104857600 cpu:               0.1 elap:               0.0
 (Enter /opt/linux/rocky/8/software/gaussian/16c01_avx2/g16/l103.exe)

 GradGradGradGradGradGradGradGradGradGradGradGradGradGradGradGradGradGrad
 Berny optimization.
 Initialization pass.
                           ----------------------------
                           !    Initial Parameters    !
                           ! (Angstroms and Degrees)  !
 --------------------------                            --------------------------
 ! Name  Definition              Value          Derivative Info.                !
 --------------------------------------------------------------------------------
 ! R1    R(1,2)                  1.0908         estimate D2E/DX2                !
 ! R2    R(2,3)                  1.1929         estimate D2E/DX2                !
 ! R3    R(2,4)                  1.3484         estimate D2E/DX2                !
 ! R4    R(4,5)                  0.9955         estimate D2E/DX2                !
 ! R5    R(4,6)                  0.9929         estimate D2E/DX2                !
 ! A1    A(1,2,3)              122.3408         estimate D2E/DX2                !
 ! A2    A(1,2,4)              112.7085         estimate D2E/DX2                !
 ! A3    A(3,2,4)              124.9507         estimate D2E/DX2                !
 ! A4    A(2,4,5)              119.2755         estimate D2E/DX2                !
 ! A5    A(2,4,6)              121.8214         estimate D2E/DX2                !
 ! A6    A(5,4,6)              118.9024         estimate D2E/DX2                !
 ! D1    D(1,2,4,5)           -179.8803         estimate D2E/DX2                !
 ! D2    D(1,2,4,6)             -0.1951         estimate D2E/DX2                !
 ! D3    D(3,2,4,5)              0.1385         estimate D2E/DX2                !
 ! D4    D(3,2,4,6)            179.8237         estimate D2E/DX2                !
 --------------------------------------------------------------------------------
 Trust Radius=3.00D-01 FncErr=1.00D-07 GrdErr=1.00D-07 EigMax=2.50D+02 EigMin=1.00D-04
 Number of steps in this run=     25 maximum allowed number of steps=    100.
 GradGradGradGradGradGradGradGradGradGradGradGradGradGradGradGradGradGrad

 Leave Link  103 at Thu Mar 13 17:51:50 2025, MaxMem=   104857600 cpu:               0.0 elap:               0.0
 (Enter /opt/linux/rocky/8/software/gaussian/16c01_avx2/g16/l202.exe)
                          Input orientation:                          
 ---------------------------------------------------------------------
 Center     Atomic      Atomic             Coordinates (Angstroms)
 Number     Number       Type             X           Y           Z
 ---------------------------------------------------------------------
      1          1           0        0.152325    1.472235    0.000051
      2          6           0        0.164649    0.381553    0.000002
      3          8           0        1.179626   -0.245149    0.000092
      4          7           0       -1.073277   -0.153013   -0.000563
      5          1           0       -1.175950   -1.143219    0.001157
      6          1           0       -1.888337    0.413945    0.001983
 ---------------------------------------------------------------------
                    Distance matrix (angstroms):
                    1          2          3          4          5
     1  H    0.000000
     2  C    1.090752   0.000000
     3  O    2.001188   1.192868   0.000000
     4  N    2.035567   1.348415   2.254786   0.000000
     5  H    2.933414   2.030305   2.520966   0.995516   0.000000
     6  H    2.298757   2.053242   3.137962   0.992860   1.712383
                    6
     6  H    0.000000
 Stoichiometry    CH3NO
 Framework group  C1[X(CH3NO)]
 Deg. of freedom    12
 Full point group                 C1      NOp   1
 Largest Abelian subgroup         C1      NOp   1
 Largest concise Abelian subgroup C1      NOp   1
                         Standard orientation:                         
 ---------------------------------------------------------------------
 Center     Atomic      Atomic             Coordinates (Angstroms)
 Number     Number       Type             X           Y           Z
 ---------------------------------------------------------------------
      1          1           0        0.152325    1.472235    0.000051
      2          6           0        0.164649    0.381553    0.000002
      3          8           0        1.179626   -0.245149    0.000092
      4          7           0       -1.073277   -0.153013   -0.000563
      5          1           0       -1.175950   -1.143219    0.001157
      6          1           0       -1.888337    0.413945    0.001983
 ---------------------------------------------------------------------
 Rotational constants (GHZ):          75.6119579          11.6034802          10.0597118
 Leave Link  202 at Thu Mar 13 17:51:50 2025, MaxMem=   104857600 cpu:               0.0 elap:               0.0
 (Enter /opt/linux/rocky/8/software/gaussian/16c01_avx2/g16/l301.exe)
 Standard basis: 6-31G(d) (6D, 7F)
 Ernie: Thresh=  0.10000D-02 Tol=  0.10000D-05 Strict=F.
 There are    51 symmetry adapted cartesian basis functions of A   symmetry.
 There are    51 symmetry adapted basis functions of A   symmetry.
    51 basis functions,    96 primitive gaussians,    51 cartesian basis functions
    12 alpha electrons       12 beta electrons
       nuclear repulsion energy        72.0750890152 Hartrees.
 IExCor=    0 DFT=F Ex=HF Corr=None ExCW=0 ScaHFX=  1.000000
 ScaDFX=  1.000000  1.000000  1.000000  1.000000 ScalE2=  1.000000  1.000000
 IRadAn=      5 IRanWt=     -1 IRanGd=            0 ICorTp=0 IEmpDi=  4
 NAtoms=    6 NActive=    6 NUniq=    6 SFac= 1.00D+00 NAtFMM=   60 NAOKFM=F Big=F
 Integral buffers will be    131072 words long.
 Raffenetti 1 integral format.
 Two-electron integral symmetry is turned on.
 Leave Link  301 at Thu Mar 13 17:51:51 2025, MaxMem=   104857600 cpu:               0.1 elap:               0.0
 (Enter /opt/linux/rocky/8/software/gaussian/16c01_avx2/g16/l302.exe)
 NPDir=0 NMtPBC=     1 NCelOv=     1 NCel=       1 NClECP=     1 NCelD=      1
         NCelK=      1 NCelE2=     1 NClLst=     1 CellRange=     0.0.
 One-electron integrals computed using PRISM.
 One-electron integral symmetry used in STVInt
 NBasis=    51 RedAO= T EigKep=  5.13D-03  NBF=    51
 NBsUse=    51 1.00D-06 EigRej= -1.00D+00 NBFU=    51
 Leave Link  302 at Thu Mar 13 17:51:51 2025, MaxMem=   104857600 cpu:               0.2 elap:               0.1
 (Enter /opt/linux/rocky/8/software/gaussian/16c01_avx2/g16/l303.exe)
 DipDrv:  MaxL=1.
 Leave Link  303 at Thu Mar 13 17:51:51 2025, MaxMem=   104857600 cpu:               0.0 elap:               0.0
 (Enter /opt/linux/rocky/8/software/gaussian/16c01_avx2/g16/l401.exe)
 ExpMin= 1.61D-01 ExpMax= 5.48D+03 ExpMxC= 8.25D+02 IAcc=3 IRadAn=         5 AccDes= 0.00D+00
 Harris functional with IExCor=  205 and IRadAn=       5 diagonalized for initial guess.
 HarFok:  IExCor=  205 AccDes= 0.00D+00 IRadAn=         5 IDoV= 1 UseB2=F ITyADJ=14
 ICtDFT=  3500011 ScaDFX=  1.000000  1.000000  1.000000  1.000000
 FoFCou: FMM=F IPFlag=           0 FMFlag=      100000 FMFlg1=           0
         NFxFlg=           0 DoJE=T BraDBF=F KetDBF=T FulRan=T
         wScrn=  0.000000 ICntrl=       500 IOpCl=  0 I1Cent=   200000004 NGrid=           0
         NMat0=    1 NMatS0=      1 NMatT0=    0 NMatD0=    1 NMtDS0=    0 NMtDT0=    0
 Petite list used in FoFCou.
 Harris En= -169.084700029494    
 JPrj=0 DoOrth=F DoCkMO=F.
 Leave Link  401 at Thu Mar 13 17:51:52 2025, MaxMem=   104857600 cpu:               0.5 elap:               0.1
 (Enter /opt/linux/rocky/8/software/gaussian/16c01_avx2/g16/l502.exe)
 Keep R1 ints in memory in canonical form, NReq=1718709.
 FoFCou: FMM=F IPFlag=           0 FMFlag=           0 FMFlg1=           0
         NFxFlg=           0 DoJE=F BraDBF=F KetDBF=F FulRan=T
         wScrn=  0.000000 ICntrl=       600 IOpCl=  0 I1Cent=           0 NGrid=           0
         NMat0=    1 NMatS0=   1326 NMatT0=    0 NMatD0=    1 NMtDS0=    0 NMtDT0=    0
 Symmetry not used in FoFCou.
 Two-electron integral symmetry not used.
 Closed shell SCF:
 Using DIIS extrapolation, IDIIS=  1040.
 NGot=   104857600 LenX=   103971438 LenY=   103968396
 Requested convergence on RMS density matrix=1.00D-08 within 128 cycles.
 Requested convergence on MAX density matrix=1.00D-06.
 Requested convergence on             energy=1.00D-06.
 No special actions if energy rises.

 Cycle   1  Pass 1  IDiag  1:
 E= -168.799045044171    
 DIIS: error= 5.06D-02 at cycle   1 NSaved=   1.
 NSaved= 1 IEnMin= 1 EnMin= -168.799045044171     IErMin= 1 ErrMin= 5.06D-02
 ErrMax= 5.06D-02  0.00D+00 EMaxC= 1.00D-01 BMatC= 2.32D-01 BMatP= 2.32D-01
 IDIUse=3 WtCom= 4.94D-01 WtEn= 5.06D-01
 Coeff-Com:  0.100D+01
 Coeff-En:   0.100D+01
 Coeff:      0.100D+01
 Gap=     0.621 Goal=   None    Shift=    0.000
 GapD=    0.621 DampG=2.000 DampE=0.500 DampFc=1.0000 IDamp=-1.
 RMSDP=8.98D-03 MaxDP=1.18D-01              OVMax= 1.33D-01

 Cycle   2  Pass 1  IDiag  1:
 E= -168.901337226363     Delta-E=       -0.102292182192 Rises=F Damp=F
 DIIS: error= 2.75D-02 at cycle   2 NSaved=   2.
 NSaved= 2 IEnMin= 2 EnMin= -168.901337226363     IErMin= 2 ErrMin= 2.75D-02
 ErrMax= 2.75D-02  0.00D+00 EMaxC= 1.00D-01 BMatC= 4.13D-02 BMatP= 2.32D-01
 IDIUse=3 WtCom= 7.25D-01 WtEn= 2.75D-01
 Coeff-Com:  0.242D+00 0.758D+00
 Coeff-En:   0.000D+00 0.100D+01
 Coeff:      0.175D+00 0.825D+00
 Gap=     0.679 Goal=   None    Shift=    0.000
 RMSDP=4.31D-03 MaxDP=5.29D-02 DE=-1.02D-01 OVMax= 5.61D-02

 Cycle   3  Pass 1  IDiag  1:
 E= -168.926605448812     Delta-E=       -0.025268222449 Rises=F Damp=F
 DIIS: error= 8.91D-03 at cycle   3 NSaved=   3.
 NSaved= 3 IEnMin= 3 EnMin= -168.926605448812     IErMin= 3 ErrMin= 8.91D-03
 ErrMax= 8.91D-03  0.00D+00 EMaxC= 1.00D-01 BMatC= 5.58D-03 BMatP= 4.13D-02
 IDIUse=3 WtCom= 9.11D-01 WtEn= 8.91D-02
 Coeff-Com: -0.171D-01 0.243D+00 0.774D+00
 Coeff-En:   0.000D+00 0.000D+00 0.100D+01
 Coeff:     -0.156D-01 0.222D+00 0.794D+00
 Gap=     0.625 Goal=   None    Shift=    0.000
 RMSDP=1.04D-03 MaxDP=2.04D-02 DE=-2.53D-02 OVMax= 2.35D-02

 Cycle   4  Pass 1  IDiag  1:
 E= -168.930414216237     Delta-E=       -0.003808767425 Rises=F Damp=F
 DIIS: error= 1.77D-03 at cycle   4 NSaved=   4.
 NSaved= 4 IEnMin= 4 EnMin= -168.930414216237     IErMin= 4 ErrMin= 1.77D-03
 ErrMax= 1.77D-03  0.00D+00 EMaxC= 1.00D-01 BMatC= 2.74D-04 BMatP= 5.58D-03
 IDIUse=3 WtCom= 9.82D-01 WtEn= 1.77D-02
 Coeff-Com: -0.118D-01 0.429D-01 0.256D+00 0.713D+00
 Coeff-En:   0.000D+00 0.000D+00 0.000D+00 0.100D+01
 Coeff:     -0.116D-01 0.421D-01 0.251D+00 0.718D+00
 Gap=     0.625 Goal=   None    Shift=    0.000
 RMSDP=3.05D-04 MaxDP=2.97D-03 DE=-3.81D-03 OVMax= 4.20D-03

 Cycle   5  Pass 1  IDiag  1:
 E= -168.930658773278     Delta-E=       -0.000244557042 Rises=F Damp=F
 DIIS: error= 6.99D-04 at cycle   5 NSaved=   5.
 NSaved= 5 IEnMin= 5 EnMin= -168.930658773278     IErMin= 5 ErrMin= 6.99D-04
 ErrMax= 6.99D-04  0.00D+00 EMaxC= 1.00D-01 BMatC= 1.22D-05 BMatP= 2.74D-04
 IDIUse=3 WtCom= 9.93D-01 WtEn= 6.99D-03
 Coeff-Com:  0.287D-02-0.236D-01-0.960D-01-0.831D-01 0.120D+01
 Coeff-En:   0.000D+00 0.000D+00 0.000D+00 0.000D+00 0.100D+01
 Coeff:      0.285D-02-0.234D-01-0.953D-01-0.825D-01 0.120D+01
 Gap=     0.627 Goal=   None    Shift=    0.000
 RMSDP=1.61D-04 MaxDP=2.06D-03 DE=-2.45D-04 OVMax= 4.31D-03

 Cycle   6  Pass 1  IDiag  1:
 E= -168.930696203163     Delta-E=       -0.000037429885 Rises=F Damp=F
 DIIS: error= 2.05D-04 at cycle   6 NSaved=   6.
 NSaved= 6 IEnMin= 6 EnMin= -168.930696203163     IErMin= 6 ErrMin= 2.05D-04
 ErrMax= 2.05D-04  0.00D+00 EMaxC= 1.00D-01 BMatC= 2.55D-06 BMatP= 1.22D-05
 IDIUse=3 WtCom= 9.98D-01 WtEn= 2.05D-03
 Coeff-Com:  0.160D-02-0.852D-02-0.416D-01-0.114D+00 0.181D+00 0.981D+00
 Coeff-En:   0.000D+00 0.000D+00 0.000D+00 0.000D+00 0.000D+00 0.100D+01
 Coeff:      0.159D-02-0.850D-02-0.415D-01-0.114D+00 0.181D+00 0.981D+00
 Gap=     0.627 Goal=   None    Shift=    0.000
 RMSDP=7.17D-05 MaxDP=8.04D-04 DE=-3.74D-05 OVMax= 1.32D-03

 Cycle   7  Pass 1  IDiag  1:
 E= -168.930701825251     Delta-E=       -0.000005622088 Rises=F Damp=F
 DIIS: error= 7.66D-05 at cycle   7 NSaved=   7.
 NSaved= 7 IEnMin= 7 EnMin= -168.930701825251     IErMin= 7 ErrMin= 7.66D-05
 ErrMax= 7.66D-05  0.00D+00 EMaxC= 1.00D-01 BMatC= 2.92D-07 BMatP= 2.55D-06
 IDIUse=1 WtCom= 1.00D+00 WtEn= 0.00D+00
 Coeff-Com: -0.654D-03 0.556D-02 0.250D-01 0.183D-01-0.198D+00-0.157D+00
 Coeff-Com:  0.131D+01
 Coeff:     -0.654D-03 0.556D-02 0.250D-01 0.183D-01-0.198D+00-0.157D+00
 Coeff:      0.131D+01
 Gap=     0.627 Goal=   None    Shift=    0.000
 RMSDP=3.19D-05 MaxDP=3.34D-04 DE=-5.62D-06 OVMax= 7.25D-04

 Cycle   8  Pass 1  IDiag  1:
 E= -168.930702666888     Delta-E=       -0.000000841637 Rises=F Damp=F
 DIIS: error= 1.75D-05 at cycle   8 NSaved=   8.
 NSaved= 8 IEnMin= 8 EnMin= -168.930702666888     IErMin= 8 ErrMin= 1.75D-05
 ErrMax= 1.75D-05  0.00D+00 EMaxC= 1.00D-01 BMatC= 1.57D-08 BMatP= 2.92D-07
 IDIUse=1 WtCom= 1.00D+00 WtEn= 0.00D+00
 Coeff-Com:  0.590D-04-0.785D-03-0.312D-02-0.801D-03 0.393D-01-0.137D-01
 Coeff-Com: -0.338D+00 0.132D+01
 Coeff:      0.590D-04-0.785D-03-0.312D-02-0.801D-03 0.393D-01-0.137D-01
 Coeff:     -0.338D+00 0.132D+01
 Gap=     0.627 Goal=   None    Shift=    0.000
 RMSDP=7.07D-06 MaxDP=7.56D-05 DE=-8.42D-07 OVMax= 1.36D-04

 Cycle   9  Pass 1  IDiag  1:
 E= -168.930702714176     Delta-E=       -0.000000047289 Rises=F Damp=F
 DIIS: error= 5.53D-06 at cycle   9 NSaved=   9.
 NSaved= 9 IEnMin= 9 EnMin= -168.930702714176     IErMin= 9 ErrMin= 5.53D-06
 ErrMax= 5.53D-06  0.00D+00 EMaxC= 1.00D-01 BMatC= 1.48D-09 BMatP= 1.57D-08
 IDIUse=1 WtCom= 1.00D+00 WtEn= 0.00D+00
 Coeff-Com:  0.371D-04-0.256D-03-0.102D-02-0.231D-02 0.486D-02 0.219D-01
 Coeff-Com: -0.367D-02-0.445D+00 0.143D+01
 Coeff:      0.371D-04-0.256D-03-0.102D-02-0.231D-02 0.486D-02 0.219D-01
 Coeff:     -0.367D-02-0.445D+00 0.143D+01
 Gap=     0.627 Goal=   None    Shift=    0.000
 RMSDP=1.90D-06 MaxDP=2.44D-05 DE=-4.73D-08 OVMax= 3.63D-05

 Cycle  10  Pass 1  IDiag  1:
 E= -168.930702718141     Delta-E=       -0.000000003965 Rises=F Damp=F
 DIIS: error= 9.97D-07 at cycle  10 NSaved=  10.
 NSaved=10 IEnMin=10 EnMin= -168.930702718141     IErMin=10 ErrMin= 9.97D-07
 ErrMax= 9.97D-07  0.00D+00 EMaxC= 1.00D-01 BMatC= 4.58D-11 BMatP= 1.48D-09
 IDIUse=1 WtCom= 1.00D+00 WtEn= 0.00D+00
 Coeff-Com: -0.938D-05 0.836D-04 0.384D-03 0.302D-03-0.333D-02-0.139D-02
 Coeff-Com:  0.193D-01-0.858D-02-0.207D+00 0.120D+01
 Coeff:     -0.938D-05 0.836D-04 0.384D-03 0.302D-03-0.333D-02-0.139D-02
 Coeff:      0.193D-01-0.858D-02-0.207D+00 0.120D+01
 Gap=     0.627 Goal=   None    Shift=    0.000
 RMSDP=2.54D-07 MaxDP=3.33D-06 DE=-3.96D-09 OVMax= 5.66D-06

 Cycle  11  Pass 1  IDiag  1:
 E= -168.930702718241     Delta-E=       -0.000000000100 Rises=F Damp=F
 DIIS: error= 1.51D-07 at cycle  11 NSaved=  11.
 NSaved=11 IEnMin=11 EnMin= -168.930702718241     IErMin=11 ErrMin= 1.51D-07
 ErrMax= 1.51D-07  0.00D+00 EMaxC= 1.00D-01 BMatC= 1.19D-12 BMatP= 4.58D-11
 IDIUse=1 WtCom= 1.00D+00 WtEn= 0.00D+00
 Coeff-Com:  0.228D-06-0.428D-05-0.271D-04 0.325D-04 0.330D-03-0.269D-03
 Coeff-Com: -0.384D-02 0.194D-01-0.178D-01-0.219D+00 0.122D+01
 Coeff:      0.228D-06-0.428D-05-0.271D-04 0.325D-04 0.330D-03-0.269D-03
 Coeff:     -0.384D-02 0.194D-01-0.178D-01-0.219D+00 0.122D+01
 Gap=     0.627 Goal=   None    Shift=    0.000
 RMSDP=4.82D-08 MaxDP=5.17D-07 DE=-1.00D-10 OVMax= 8.24D-07

 Cycle  12  Pass 1  IDiag  1:
 E= -168.930702718244     Delta-E=       -0.000000000003 Rises=F Damp=F
 DIIS: error= 3.06D-08 at cycle  12 NSaved=  12.
 NSaved=12 IEnMin=12 EnMin= -168.930702718244     IErMin=12 ErrMin= 3.06D-08
 ErrMax= 3.06D-08  0.00D+00 EMaxC= 1.00D-01 BMatC= 4.27D-14 BMatP= 1.19D-12
 IDIUse=1 WtCom= 1.00D+00 WtEn= 0.00D+00
 Coeff-Com:  0.195D-06-0.124D-05-0.326D-05-0.214D-04-0.302D-05 0.158D-03
 Coeff-Com:  0.508D-03-0.561D-02 0.118D-01 0.258D-01-0.346D+00 0.131D+01
 Coeff:      0.195D-06-0.124D-05-0.326D-05-0.214D-04-0.302D-05 0.158D-03
 Coeff:      0.508D-03-0.561D-02 0.118D-01 0.258D-01-0.346D+00 0.131D+01
 Gap=     0.627 Goal=   None    Shift=    0.000
 RMSDP=1.27D-08 MaxDP=1.32D-07 DE=-3.01D-12 OVMax= 1.75D-07

 Cycle  13  Pass 1  IDiag  1:
 E= -168.930702718244     Delta-E=        0.000000000000 Rises=F Damp=F
 DIIS: error= 5.48D-09 at cycle  13 NSaved=  13.
 NSaved=13 IEnMin=12 EnMin= -168.930702718244     IErMin=13 ErrMin= 5.48D-09
 ErrMax= 5.48D-09  0.00D+00 EMaxC= 1.00D-01 BMatC= 1.51D-15 BMatP= 4.27D-14
 IDIUse=1 WtCom= 1.00D+00 WtEn= 0.00D+00
 Coeff-Com: -0.404D-07 0.368D-06 0.149D-05 0.230D-05-0.124D-04-0.120D-04
 Coeff-Com:  0.504D-04 0.225D-03-0.138D-02 0.413D-02 0.142D-01-0.256D+00
 Coeff-Com:  0.124D+01
 Coeff:     -0.404D-07 0.368D-06 0.149D-05 0.230D-05-0.124D-04-0.120D-04
 Coeff:      0.504D-04 0.225D-03-0.138D-02 0.413D-02 0.142D-01-0.256D+00
 Coeff:      0.124D+01
 Gap=     0.627 Goal=   None    Shift=    0.000
 RMSDP=2.39D-09 MaxDP=2.23D-08 DE= 5.68D-14 OVMax= 3.42D-08

 SCF Done:  E(RHF) =  -168.930702718     A.U. after   13 cycles
            NFock= 13  Conv=0.24D-08     -V/T= 2.0020
 KE= 1.685855329668D+02 PE=-5.418282249356D+02 EE= 1.322369002354D+02
 Leave Link  502 at Thu Mar 13 17:51:52 2025, MaxMem=   104857600 cpu:               0.4 elap:               0.1
 (Enter /opt/linux/rocky/8/software/gaussian/16c01_avx2/g16/l601.exe)
 Copying SCF densities to generalized density rwf, IOpCl= 0 IROHF=0.

 **********************************************************************

            Population analysis using the SCF Density.

 **********************************************************************

 Orbital symmetries:
       Occupied  (A) (A) (A) (A) (A) (A) (A) (A) (A) (A) (A) (A)
       Virtual   (A) (A) (A) (A) (A) (A) (A) (A) (A) (A) (A) (A)
                 (A) (A) (A) (A) (A) (A) (A) (A) (A) (A) (A) (A)
                 (A) (A) (A) (A) (A) (A) (A) (A) (A) (A) (A) (A)
                 (A) (A) (A)
 The electronic state is 1-A.
 Alpha  occ. eigenvalues --  -20.53007 -15.59118 -11.35051  -1.39318  -1.22013
 Alpha  occ. eigenvalues --   -0.85018  -0.75336  -0.67373  -0.60708  -0.57158
 Alpha  occ. eigenvalues --   -0.42856  -0.41490
 Alpha virt. eigenvalues --    0.21169   0.22135   0.25869   0.31745   0.42816
 Alpha virt. eigenvalues --    0.54630   0.75024   0.75708   0.86322   0.92804
 Alpha virt. eigenvalues --    0.96551   0.98912   1.07214   1.12011   1.16985
 Alpha virt. eigenvalues --    1.19860   1.30836   1.33534   1.46143   1.57331
 Alpha virt. eigenvalues --    1.64175   1.74792   1.75793   1.98166   2.06494
 Alpha virt. eigenvalues --    2.15733   2.20320   2.36719   2.47685   2.63455
 Alpha virt. eigenvalues --    2.63884   2.85675   2.99712   3.04806   3.31234
 Alpha virt. eigenvalues --    3.41751   4.16834   4.30940   4.60101
          Condensed to atoms (all electrons):
               1          2          3          4          5          6
     1  H    0.596268   0.412479  -0.052041  -0.108561   0.004753   0.003798
     2  C    0.412479   4.225748   0.612848   0.263636  -0.009396  -0.013647
     3  O   -0.052041   0.612848   8.077592  -0.092350   0.006251   0.002376
     4  N   -0.108561   0.263636  -0.092350   7.197271   0.307621   0.316621
     5  H    0.004753  -0.009396   0.006251   0.307621   0.304744  -0.012338
     6  H    0.003798  -0.013647   0.002376   0.316621  -0.012338   0.314275
 Mulliken charges:
               1
     1  H    0.143304
     2  C    0.508332
     3  O   -0.554677
     4  N   -0.884238
     5  H    0.398365
     6  H    0.388914
 Sum of Mulliken charges =  -0.00000
 Mulliken charges with hydrogens summed into heavy atoms:
               1
     2  C    0.651637
     3  O   -0.554677
     4  N   -0.096960
 Electronic spatial extent (au):  <R**2>=            143.4363
 Charge=             -0.0000 electrons
 Dipole moment (field-independent basis, Debye):
    X=             -3.9412    Y=              1.1329    Z=              0.0081  Tot=              4.1008
 Quadrupole moment (field-independent basis, Debye-Ang):
   XX=            -17.9626   YY=            -14.7904   ZZ=            -18.5076
   XY=              1.1987   XZ=             -0.0144   YZ=             -0.0015
 Traceless Quadrupole moment (field-independent basis, Debye-Ang):
   XX=             -0.8757   YY=              2.2965   ZZ=             -1.4207
   XY=              1.1987   XZ=             -0.0144   YZ=             -0.0015
 Octapole moment (field-independent basis, Debye-Ang**2):
  XXX=            -12.6700  YYY=             -2.0383  ZZZ=              0.0078  XYY=             -2.8702
  XXY=              1.1489  XXZ=              0.0238  XZZ=              1.5309  YZZ=             -0.0666
  YYZ=              0.0057  XYZ=              0.0009
 Hexadecapole moment (field-independent basis, Debye-Ang**3):
 XXXX=           -104.0643 YYYY=            -30.3871 ZZZZ=            -15.6662 XXXY=             -2.4934
 XXXZ=             -0.0466 YYYX=              3.1962 YYYZ=             -0.0046 ZZZX=             -0.0117
 ZZZY=             -0.0015 XXYY=            -21.5217 XXZZ=            -23.5944 YYZZ=             -8.6627
 XXYZ=              0.0010 YYXZ=             -0.0083 ZZXY=             -0.2832
 N-N= 7.207508901522D+01 E-N=-5.418282249735D+02  KE= 1.685855329668D+02
 No NMR shielding tensors so no spin-rotation constants.
 Leave Link  601 at Thu Mar 13 17:51:52 2025, MaxMem=   104857600 cpu:               0.2 elap:               0.1
 (Enter /opt/linux/rocky/8/software/gaussian/16c01_avx2/g16/l701.exe)
 ... and contract with generalized density number  0.
 Compute integral first derivatives.
 Leave Link  701 at Thu Mar 13 17:51:53 2025, MaxMem=   104857600 cpu:               0.2 elap:               0.1
 (Enter /opt/linux/rocky/8/software/gaussian/16c01_avx2/g16/l702.exe)
 L702 exits ... SP integral derivatives will be done elsewhere.
 Leave Link  702 at Thu Mar 13 17:51:53 2025, MaxMem=   104857600 cpu:               0.0 elap:               0.0
 (Enter /opt/linux/rocky/8/software/gaussian/16c01_avx2/g16/l703.exe)
 Integral derivatives from FoFJK, PRISM(SPDF).
 Compute integral first derivatives, UseDBF=F ICtDFT=           0.
 Calling FoFJK, ICntrl=      2127 FMM=F ISym2X=0 I1Cent= 0 IOpClX= 0 NMat=1 NMatS=1 NMatT=0.
 FoFJK:  IHMeth= 1 ICntrl=    2127 DoSepK=F KAlg= 0 I1Cent=           0 FoldK=F
 IRaf=         0 NMat=       1 IRICut=       1 DoRegI=T DoRafI=F ISym2E= 0 IDoP0=0 IntGTp=1.
 FoFCou: FMM=F IPFlag=           0 FMFlag=      100000 FMFlg1=         800
         NFxFlg=           0 DoJE=F BraDBF=F KetDBF=F FulRan=T
         wScrn=  0.000000 ICntrl=      2127 IOpCl=  0 I1Cent=           0 NGrid=           0
         NMat0=    1 NMatS0=      1 NMatT0=    0 NMatD0=    1 NMtDS0=    0 NMtDT0=    0
 Symmetry not used in FoFCou.
 Leave Link  703 at Thu Mar 13 17:51:53 2025, MaxMem=   104857600 cpu:               0.3 elap:               0.1
 (Enter /opt/linux/rocky/8/software/gaussian/16c01_avx2/g16/l716.exe)
 Dipole        =-1.55059088D+00 4.45697849D-01 3.17003941D-03
 ***** Axes restored to original set *****
 -------------------------------------------------------------------
 Center     Atomic                   Forces (Hartrees/Bohr)
 Number     Number              X              Y              Z
 -------------------------------------------------------------------
      1        1          -0.000000016    0.000000568   -0.000000882
      2        6           0.000036427    0.000004106    0.000000882
      3        8          -0.000014151    0.000006810   -0.000000661
      4        7          -0.000012352   -0.000008181    0.000004046
      5        1          -0.000002059   -0.000007683   -0.000001815
      6        1          -0.000007848    0.000004380   -0.000001570
 -------------------------------------------------------------------
 Cartesian Forces:  Max     0.000036427 RMS     0.000010484
 Leave Link  716 at Thu Mar 13 17:51:54 2025, MaxMem=   104857600 cpu:               0.0 elap:               0.0
 (Enter /opt/linux/rocky/8/software/gaussian/16c01_avx2/g16/l103.exe)

 GradGradGradGradGradGradGradGradGradGradGradGradGradGradGradGradGradGrad
 Berny optimization.
 FormGI is forming the generalized inverse of G from B-inverse, IUseBI=4.
 Internal  Forces:  Max     0.000024988 RMS     0.000008295
 Search for a local minimum.
 Step number   1 out of a maximum of   25
 All quantities printed in internal units (Hartrees-Bohrs-Radians)
 RMS Force = .82950D-05 SwitMx=.10000D-02 MixMth= 2
 Mixed Optimization -- En-DIIS/RFO-DIIS
 Second derivative matrix not updated -- first step.
 The second derivative matrix:
                          R1        R2        R3        R4        R5
           R1           0.34726
           R2           0.00000   1.08490
           R3           0.00000   0.00000   0.55360
           R4           0.00000   0.00000   0.00000   0.48485
           R5           0.00000   0.00000   0.00000   0.00000   0.48966
           A1           0.00000   0.00000   0.00000   0.00000   0.00000
           A2           0.00000   0.00000   0.00000   0.00000   0.00000
           A3           0.00000   0.00000   0.00000   0.00000   0.00000
           A4           0.00000   0.00000   0.00000   0.00000   0.00000
           A5           0.00000   0.00000   0.00000   0.00000   0.00000
           A6           0.00000   0.00000   0.00000   0.00000   0.00000
           D1           0.00000   0.00000   0.00000   0.00000   0.00000
           D2           0.00000   0.00000   0.00000   0.00000   0.00000
           D3           0.00000   0.00000   0.00000   0.00000   0.00000
           D4           0.00000   0.00000   0.00000   0.00000   0.00000
                          A1        A2        A3        A4        A5
           A1           0.16000
           A2           0.00000   0.16000
           A3           0.00000   0.00000   0.25000
           A4           0.00000   0.00000   0.00000   0.16000
           A5           0.00000   0.00000   0.00000   0.00000   0.16000
           A6           0.00000   0.00000   0.00000   0.00000   0.00000
           D1           0.00000   0.00000   0.00000   0.00000   0.00000
           D2           0.00000   0.00000   0.00000   0.00000   0.00000
           D3           0.00000   0.00000   0.00000   0.00000   0.00000
           D4           0.00000   0.00000   0.00000   0.00000   0.00000
                          A6        D1        D2        D3        D4
           A6           0.16000
           D1           0.00000   0.02374
           D2           0.00000   0.00000   0.02374
           D3           0.00000   0.00000   0.00000   0.02374
           D4           0.00000   0.00000   0.00000   0.00000   0.02374
 ITU=  0
     Eigenvalues ---    0.02374   0.02374   0.02374   0.16000   0.16000
     Eigenvalues ---    0.16000   0.22000   0.34726   0.48485   0.48966
     Eigenvalues ---    0.55360   1.08490
 RFO step:  Lambda= 0.00000000D+00 EMin= 2.37415645D-02
 Linear search not attempted -- first point.
 Iteration  1 RMS(Cart)=  0.00002909 RMS(Int)=  0.00000000
 Iteration  2 RMS(Cart)=  0.00000000 RMS(Int)=  0.00000000
 ITry= 1 IFail=0 DXMaxC= 5.97D-05 DCOld= 1.00D+10 DXMaxT= 3.00D-01 DXLimC= 3.00D+00 Rises=F
 Variable       Old X    -DE/DX   Delta X   Delta X   Delta X     New X
                                 (Linear)    (Quad)   (Total)
    R1        2.06122   0.00000   0.00000   0.00000   0.00000   2.06122
    R2        2.25419  -0.00002   0.00000  -0.00001  -0.00001   2.25418
    R3        2.54813   0.00002   0.00000   0.00005   0.00005   2.54818
    R4        1.88125   0.00001   0.00000   0.00002   0.00002   1.88127
    R5        1.87623   0.00001   0.00000   0.00002   0.00002   1.87625
    A1        2.13525   0.00000   0.00000   0.00001   0.00001   2.13526
    A2        1.96713   0.00000   0.00000   0.00001   0.00001   1.96714
    A3        2.18080  -0.00000   0.00000  -0.00001  -0.00001   2.18079
    A4        2.08175   0.00000   0.00000   0.00001   0.00001   2.08176
    A5        2.12618   0.00000   0.00000   0.00000   0.00000   2.12619
    A6        2.07524  -0.00000   0.00000  -0.00001  -0.00001   2.07523
    D1       -3.13950  -0.00000   0.00000  -0.00009  -0.00009  -3.13960
    D2       -0.00340   0.00000   0.00000   0.00002   0.00002  -0.00338
    D3        0.00242  -0.00000   0.00000  -0.00003  -0.00003   0.00238
    D4        3.13852   0.00000   0.00000   0.00008   0.00008   3.13860
         Item               Value     Threshold  Converged?
 Maximum Force            0.000025     0.000450     YES
 RMS     Force            0.000008     0.000300     YES
 Maximum Displacement     0.000060     0.001800     YES
 RMS     Displacement     0.000029     0.001200     YES
 Predicted change in Energy=-1.059138D-09
 Optimization completed.
    -- Stationary point found.
                           ----------------------------
                           !   Optimized Parameters   !
                           ! (Angstroms and Degrees)  !
 --------------------------                            --------------------------
 ! Name  Definition              Value          Derivative Info.                !
 --------------------------------------------------------------------------------
 ! R1    R(1,2)                  1.0908         -DE/DX =    0.0                 !
 ! R2    R(2,3)                  1.1929         -DE/DX =    0.0                 !
 ! R3    R(2,4)                  1.3484         -DE/DX =    0.0                 !
 ! R4    R(4,5)                  0.9955         -DE/DX =    0.0                 !
 ! R5    R(4,6)                  0.9929         -DE/DX =    0.0                 !
 ! A1    A(1,2,3)              122.3408         -DE/DX =    0.0                 !
 ! A2    A(1,2,4)              112.7085         -DE/DX =    0.0                 !
 ! A3    A(3,2,4)              124.9507         -DE/DX =    0.0                 !
 ! A4    A(2,4,5)              119.2755         -DE/DX =    0.0                 !
 ! A5    A(2,4,6)              121.8214         -DE/DX =    0.0                 !
 ! A6    A(5,4,6)              118.9024         -DE/DX =    0.0                 !
 ! D1    D(1,2,4,5)           -179.8803         -DE/DX =    0.0                 !
 ! D2    D(1,2,4,6)             -0.1951         -DE/DX =    0.0                 !
 ! D3    D(3,2,4,5)              0.1385         -DE/DX =    0.0                 !
 ! D4    D(3,2,4,6)            179.8237         -DE/DX =    0.0                 !
 --------------------------------------------------------------------------------
 Lowest energy point so far.  Saving SCF results.
 Largest change from initial coordinates is atom    3       0.000 Angstoms.
 GradGradGradGradGradGradGradGradGradGradGradGradGradGradGradGradGradGrad

 Leave Link  103 at Thu Mar 13 17:51:54 2025, MaxMem=   104857600 cpu:               0.1 elap:               0.0
 (Enter /opt/linux/rocky/8/software/gaussian/16c01_avx2/g16/l202.exe)
                          Input orientation:                          
 ---------------------------------------------------------------------
 Center     Atomic      Atomic             Coordinates (Angstroms)
 Number     Number       Type             X           Y           Z
 ---------------------------------------------------------------------
      1          1           0        0.152325    1.472235    0.000051
      2          6           0        0.164649    0.381553    0.000002
      3          8           0        1.179626   -0.245149    0.000092
      4          7           0       -1.073277   -0.153013   -0.000563
      5          1           0       -1.175950   -1.143219    0.001157
      6          1           0       -1.888337    0.413945    0.001983
 ---------------------------------------------------------------------
                    Distance matrix (angstroms):
                    1          2          3          4          5
     1  H    0.000000
     2  C    1.090752   0.000000
     3  O    2.001188   1.192868   0.000000
     4  N    2.035567   1.348415   2.254786   0.000000
     5  H    2.933414   2.030305   2.520966   0.995516   0.000000
     6  H    2.298757   2.053242   3.137962   0.992860   1.712383
                    6
     6  H    0.000000
 Stoichiometry    CH3NO
 Framework group  C1[X(CH3NO)]
 Deg. of freedom    12
 Full point group                 C1      NOp   1
 RotChk:  IX=0 Diff= 2.24D-16
 Largest Abelian subgroup         C1      NOp   1
 Largest concise Abelian subgroup C1      NOp   1
                         Standard orientation:                         
 ---------------------------------------------------------------------
 Center     Atomic      Atomic             Coordinates (Angstroms)
 Number     Number       Type             X           Y           Z
 ---------------------------------------------------------------------
      1          1           0        0.152325    1.472235    0.000051
      2          6           0        0.164649    0.381553    0.000002
      3          8           0        1.179626   -0.245149    0.000092
      4          7           0       -1.073277   -0.153013   -0.000563
      5          1           0       -1.175950   -1.143219    0.001157
      6          1           0       -1.888337    0.413945    0.001983
 ---------------------------------------------------------------------
 Rotational constants (GHZ):          75.6119579          11.6034802          10.0597118
 Leave Link  202 at Thu Mar 13 17:51:54 2025, MaxMem=   104857600 cpu:               0.0 elap:               0.0
 (Enter /opt/linux/rocky/8/software/gaussian/16c01_avx2/g16/l9999.exe)
 Unable to Open any file for archive entry.
 1\1\GINC-A012\FOpt\RHF\6-31G(d)\C1H3N1O1\DJO04747\13-Mar-2025\0\\#P op
 t freq rhf/6-31g(d)\\formamide gs structure\\0,1\H,0.152325,1.472235,0
 .000051\C,0.164649,0.381553,0.000002\O,1.179626,-0.245149,0.000092\N,-
 1.073277,-0.153013,-0.000563\H,-1.17595,-1.143219,0.001157\H,-1.888337
 ,0.413945,0.001983\\Version=ES64L-G16RevC.01\State=1-A\HF=-168.9307027
 \RMSD=2.389e-09\RMSF=1.048e-05\Dipole=-1.5505908,0.4456981,0.00317\Qua
 drupole=-0.6510861,1.7073697,-1.0562836,0.8911969,-0.010697,-0.0011244
 \PG=C01 [X(C1H3N1O1)]\\@
 The archive entry for this job was punched.


 A CHEMICAL PHYSICIST MAKES PRECISE MEASUREMENTS ON IMPURE COMPOUNDS.
 A THEORETICAL PHYSICAL CHEMIST MAKES IMPRECISE
     MEASUREMENTS ON PURE COMPOUNDS.
 AN EXPERIMENTAL PHYSICAL CHEMIST MAKES IMPRECISE
     MEASUREMENTS ON IMPURE COMPOUNDS.
 Leave Link 9999 at Thu Mar 13 17:51:55 2025, MaxMem=   104857600 cpu:               0.1 elap:               0.0
 Job cpu time:       0 days  0 hours  0 minutes  2.7 seconds.
 Elapsed time:       0 days  0 hours  0 minutes  0.9 seconds.
 File lengths (MBytes):  RWF=      6 Int=      0 D2E=      0 Chk=      2 Scr=      1
 Normal termination of Gaussian 16 at Thu Mar 13 17:51:55 2025.
 (Enter /opt/linux/rocky/8/software/gaussian/16c01_avx2/g16/l1.exe)
 Link1:  Proceeding to internal job step number  2.
 -----------------------------------------------------------------
 #P Geom=AllCheck Guess=TCheck SCRF=Check GenChk RHF/6-31G(d) Freq
 -----------------------------------------------------------------
 1/10=4,29=7,30=1,38=1,40=1/1,3;
 2/12=2,40=1/2;
 3/5=1,6=6,7=1,11=1,14=-4,25=1,30=1,70=2,71=2,116=1,140=1/1,2,3;
 4/5=101/1;
 5/5=2,38=6,98=1/2;
 8/6=4,10=90,11=11/1;
 10/13=10,15=4/2;
 11/6=3,8=1,9=11,15=111,16=1/1,2,10;
 10/6=1/2;
 6/7=2,8=2,9=2,10=2,28=1/1;
 7/8=1,10=1,25=1/1,2,3,16;
 1/10=4,30=1/3;
 99//99;
 Leave Link    1 at Thu Mar 13 17:51:55 2025, MaxMem=   104857600 cpu:               0.1 elap:               0.0
 (Enter /opt/linux/rocky/8/software/gaussian/16c01_avx2/g16/l101.exe)
 Structure from the checkpoint file:  "formamide_gs_hf631gd_P.chk"
 ----------------------
 formamide gs structure
 ----------------------
 Charge =  0 Multiplicity = 1
 Redundant internal coordinates found in file.  (old form).
 H,0,0.152325,1.472235,0.000051
 C,0,0.164649,0.381553,0.000002
 O,0,1.179626,-0.245149,0.000092
 N,0,-1.073277,-0.153013,-0.000563
 H,0,-1.17595,-1.143219,0.001157
 H,0,-1.888337,0.413945,0.001983
 Recover connectivity data from disk.
 ITRead=  0  0  0  0  0  0
 MicOpt= -1 -1 -1 -1 -1 -1
 NAtoms=      6 NQM=        6 NQMF=       0 NMMI=      0 NMMIF=      0
                NMic=       0 NMicF=      0.
                    Isotopes and Nuclear Properties:
 (Nuclear quadrupole moments (NQMom) in fm**2, nuclear magnetic moments (NMagM)
  in nuclear magnetons)

  Atom         1           2           3           4           5           6
 IAtWgt=           1          12          16          14           1           1
 AtmWgt=   1.0078250  12.0000000  15.9949146  14.0030740   1.0078250   1.0078250
 NucSpn=           1           0           0           2           1           1
 AtZEff=   1.0000000   3.6000000   5.6000000   4.5500000   1.0000000   1.0000000
 NQMom=    0.0000000   0.0000000   0.0000000   2.0440000   0.0000000   0.0000000
 NMagM=    2.7928460   0.0000000   0.0000000   0.4037610   2.7928460   2.7928460
 AtZNuc=   1.0000000   6.0000000   8.0000000   7.0000000   1.0000000   1.0000000
 Leave Link  101 at Thu Mar 13 17:51:55 2025, MaxMem=   104857600 cpu:               0.1 elap:               0.0
 (Enter /opt/linux/rocky/8/software/gaussian/16c01_avx2/g16/l103.exe)

 GradGradGradGradGradGradGradGradGradGradGradGradGradGradGradGradGradGrad
 Berny optimization.
 Initialization pass.
                           ----------------------------
                           !    Initial Parameters    !
                           ! (Angstroms and Degrees)  !
 --------------------------                            --------------------------
 ! Name  Definition              Value          Derivative Info.                !
 --------------------------------------------------------------------------------
 ! R1    R(1,2)                  1.0908         calculate D2E/DX2 analytically  !
 ! R2    R(2,3)                  1.1929         calculate D2E/DX2 analytically  !
 ! R3    R(2,4)                  1.3484         calculate D2E/DX2 analytically  !
 ! R4    R(4,5)                  0.9955         calculate D2E/DX2 analytically  !
 ! R5    R(4,6)                  0.9929         calculate D2E/DX2 analytically  !
 ! A1    A(1,2,3)              122.3408         calculate D2E/DX2 analytically  !
 ! A2    A(1,2,4)              112.7085         calculate D2E/DX2 analytically  !
 ! A3    A(3,2,4)              124.9507         calculate D2E/DX2 analytically  !
 ! A4    A(2,4,5)              119.2755         calculate D2E/DX2 analytically  !
 ! A5    A(2,4,6)              121.8214         calculate D2E/DX2 analytically  !
 ! A6    A(5,4,6)              118.9024         calculate D2E/DX2 analytically  !
 ! D1    D(1,2,4,5)           -179.8803         calculate D2E/DX2 analytically  !
 ! D2    D(1,2,4,6)             -0.1951         calculate D2E/DX2 analytically  !
 ! D3    D(3,2,4,5)              0.1385         calculate D2E/DX2 analytically  !
 ! D4    D(3,2,4,6)            179.8237         calculate D2E/DX2 analytically  !
 --------------------------------------------------------------------------------
 Trust Radius=3.00D-01 FncErr=1.00D-07 GrdErr=1.00D-07 EigMax=2.50D+02 EigMin=1.00D-04
 Number of steps in this run=      2 maximum allowed number of steps=      2.
 GradGradGradGradGradGradGradGradGradGradGradGradGradGradGradGradGradGrad

 Leave Link  103 at Thu Mar 13 17:51:55 2025, MaxMem=   104857600 cpu:               0.0 elap:               0.0
 (Enter /opt/linux/rocky/8/software/gaussian/16c01_avx2/g16/l202.exe)
                          Input orientation:                          
 ---------------------------------------------------------------------
 Center     Atomic      Atomic             Coordinates (Angstroms)
 Number     Number       Type             X           Y           Z
 ---------------------------------------------------------------------
      1          1           0        0.152325    1.472235    0.000051
      2          6           0        0.164649    0.381553    0.000002
      3          8           0        1.179626   -0.245149    0.000092
      4          7           0       -1.073277   -0.153013   -0.000563
      5          1           0       -1.175950   -1.143219    0.001157
      6          1           0       -1.888337    0.413945    0.001983
 ---------------------------------------------------------------------
                    Distance matrix (angstroms):
                    1          2          3          4          5
     1  H    0.000000
     2  C    1.090752   0.000000
     3  O    2.001188   1.192868   0.000000
     4  N    2.035567   1.348415   2.254786   0.000000
     5  H    2.933414   2.030305   2.520966   0.995516   0.000000
     6  H    2.298757   2.053242   3.137962   0.992860   1.712383
                    6
     6  H    0.000000
 Stoichiometry    CH3NO
 Framework group  C1[X(CH3NO)]
 Deg. of freedom    12
 Full point group                 C1      NOp   1
 RotChk:  IX=0 Diff= 3.27D-16
 Largest Abelian subgroup         C1      NOp   1
 Largest concise Abelian subgroup C1      NOp   1
                         Standard orientation:                         
 ---------------------------------------------------------------------
 Center     Atomic      Atomic             Coordinates (Angstroms)
 Number     Number       Type             X           Y           Z
 ---------------------------------------------------------------------
      1          1           0        0.152325    1.472235    0.000051
      2          6           0        0.164649    0.381553    0.000002
      3          8           0        1.179626   -0.245149    0.000092
      4          7           0       -1.073277   -0.153013   -0.000563
      5          1           0       -1.175950   -1.143219    0.001157
      6          1           0       -1.888337    0.413945    0.001983
 ---------------------------------------------------------------------
 Rotational constants (GHZ):          75.6119579          11.6034802          10.0597118
 Leave Link  202 at Thu Mar 13 17:51:55 2025, MaxMem=   104857600 cpu:               0.0 elap:               0.0
 (Enter /opt/linux/rocky/8/software/gaussian/16c01_avx2/g16/l301.exe)
 Standard basis: 6-31G(d) (6D, 7F)
 Ernie: Thresh=  0.10000D-02 Tol=  0.10000D-05 Strict=F.
 There are    51 symmetry adapted cartesian basis functions of A   symmetry.
 There are    51 symmetry adapted basis functions of A   symmetry.
    51 basis functions,    96 primitive gaussians,    51 cartesian basis functions
    12 alpha electrons       12 beta electrons
       nuclear repulsion energy        72.0750890152 Hartrees.
 IExCor=    0 DFT=F Ex=HF Corr=None ExCW=0 ScaHFX=  1.000000
 ScaDFX=  1.000000  1.000000  1.000000  1.000000 ScalE2=  1.000000  1.000000
 IRadAn=      5 IRanWt=     -1 IRanGd=            0 ICorTp=0 IEmpDi=  4
 NAtoms=    6 NActive=    6 NUniq=    6 SFac= 1.00D+00 NAtFMM=   60 NAOKFM=F Big=F
 Integral buffers will be    131072 words long.
 Raffenetti 1 integral format.
 Two-electron integral symmetry is turned on.
 Leave Link  301 at Thu Mar 13 17:51:55 2025, MaxMem=   104857600 cpu:               0.1 elap:               0.0
 (Enter /opt/linux/rocky/8/software/gaussian/16c01_avx2/g16/l302.exe)
 NPDir=0 NMtPBC=     1 NCelOv=     1 NCel=       1 NClECP=     1 NCelD=      1
         NCelK=      1 NCelE2=     1 NClLst=     1 CellRange=     0.0.
 One-electron integrals computed using PRISM.
 One-electron integral symmetry used in STVInt
 NBasis=    51 RedAO= T EigKep=  5.13D-03  NBF=    51
 NBsUse=    51 1.00D-06 EigRej= -1.00D+00 NBFU=    51
 Leave Link  302 at Thu Mar 13 17:51:56 2025, MaxMem=   104857600 cpu:               0.1 elap:               0.0
 (Enter /opt/linux/rocky/8/software/gaussian/16c01_avx2/g16/l303.exe)
 DipDrv:  MaxL=1.
 Leave Link  303 at Thu Mar 13 17:51:56 2025, MaxMem=   104857600 cpu:               0.0 elap:               0.0
 (Enter /opt/linux/rocky/8/software/gaussian/16c01_avx2/g16/l401.exe)
 Initial guess from the checkpoint file:  "formamide_gs_hf631gd_P.chk"
 B after Tr=     0.000000    0.000000    0.000000
         Rot=    1.000000   -0.000000   -0.000000   -0.000000 Ang=   0.00 deg.
 Guess basis will be translated and rotated to current coordinates.
 JPrj=2 DoOrth=T DoCkMO=T.
 Leave Link  401 at Thu Mar 13 17:51:56 2025, MaxMem=   104857600 cpu:               0.2 elap:               0.1
 (Enter /opt/linux/rocky/8/software/gaussian/16c01_avx2/g16/l502.exe)
 Keep R1 ints in memory in canonical form, NReq=1718709.
 FoFCou: FMM=F IPFlag=           0 FMFlag=           0 FMFlg1=           0
         NFxFlg=           0 DoJE=F BraDBF=F KetDBF=F FulRan=T
         wScrn=  0.000000 ICntrl=       600 IOpCl=  0 I1Cent=           0 NGrid=           0
         NMat0=    1 NMatS0=   1326 NMatT0=    0 NMatD0=    1 NMtDS0=    0 NMtDT0=    0
 Symmetry not used in FoFCou.
 Two-electron integral symmetry not used.
 Closed shell SCF:
 Using DIIS extrapolation, IDIIS=  1040.
 NGot=   104857600 LenX=   103971438 LenY=   103968396
 Requested convergence on RMS density matrix=1.00D-08 within 128 cycles.
 Requested convergence on MAX density matrix=1.00D-06.
 Requested convergence on             energy=1.00D-06.
 No special actions if energy rises.

 Cycle   1  Pass 1  IDiag  1:
 E= -168.930702718244    
 DIIS: error= 8.14D-10 at cycle   1 NSaved=   1.
 NSaved= 1 IEnMin= 1 EnMin= -168.930702718244     IErMin= 1 ErrMin= 8.14D-10
 ErrMax= 8.14D-10  0.00D+00 EMaxC= 1.00D-01 BMatC= 3.55D-17 BMatP= 3.55D-17
 IDIUse=1 WtCom= 1.00D+00 WtEn= 0.00D+00
 Coeff-Com:  0.100D+01
 Coeff:      0.100D+01
 Gap=     0.627 Goal=   None    Shift=    0.000
 RMSDP=2.05D-10 MaxDP=2.15D-09              OVMax= 2.63D-09

 SCF Done:  E(RHF) =  -168.930702718     A.U. after    1 cycles
            NFock=  1  Conv=0.20D-09     -V/T= 2.0020
 KE= 1.685855329555D+02 PE=-5.418282249622D+02 EE= 1.322369002732D+02
 Leave Link  502 at Thu Mar 13 17:51:56 2025, MaxMem=   104857600 cpu:               0.2 elap:               0.1
 (Enter /opt/linux/rocky/8/software/gaussian/16c01_avx2/g16/l801.exe)
 Range of M.O.s used for correlation:     1    51
 NBasis=    51 NAE=    12 NBE=    12 NFC=     0 NFV=     0
 NROrb=     51 NOA=    12 NOB=    12 NVA=    39 NVB=    39
 Leave Link  801 at Thu Mar 13 17:51:57 2025, MaxMem=   104857600 cpu:               0.0 elap:               0.0
 (Enter /opt/linux/rocky/8/software/gaussian/16c01_avx2/g16/l1002.exe)
 Minotr:  Closed shell wavefunction.
          Direct CPHF calculation.
          Differentiating once with respect to electric field.
                with respect to dipole field.
          Electric field/nuclear overlap derivatives assumed to be zero.
          Requested convergence is 1.0D-08 RMS, and 1.0D-07 maximum.
          Secondary convergence is 1.0D-12 RMS, and 1.0D-12 maximum.
          NewPWx=F KeepS1=T KeepF1=T KeepIn=T MapXYZ=F SortEE=F KeepMc=T.
 Keep R1 ints in memory in canonical form, NReq=1719199.
 FoFCou: FMM=F IPFlag=           0 FMFlag=           0 FMFlg1=           0
         NFxFlg=           0 DoJE=F BraDBF=F KetDBF=F FulRan=T
         wScrn=  0.000000 ICntrl=       600 IOpCl=  0 I1Cent=           0 NGrid=           0
         NMat0=    1 NMatS0=   1326 NMatT0=    0 NMatD0=    1 NMtDS0=    0 NMtDT0=    0
 Symmetry not used in FoFCou.
 Two-electron integral symmetry not used.
          MDV=     104857600 using IRadAn=       1.
          Solving linear equations simultaneously, MaxMat=       0.
          There are     3 degrees of freedom in the 1st order CPHF.  IDoFFX=0 NUNeed=     3.
      3 vectors produced by pass  0 Test12= 1.56D-14 3.33D-08 XBig12= 6.44D+00 1.84D+00.
 AX will form     3 AO Fock derivatives at one time.
      3 vectors produced by pass  1 Test12= 1.56D-14 3.33D-08 XBig12= 5.34D-01 2.60D-01.
      3 vectors produced by pass  2 Test12= 1.56D-14 3.33D-08 XBig12= 7.33D-02 1.22D-01.
      3 vectors produced by pass  3 Test12= 1.56D-14 3.33D-08 XBig12= 4.23D-03 2.09D-02.
      3 vectors produced by pass  4 Test12= 1.56D-14 3.33D-08 XBig12= 3.83D-04 6.03D-03.
      3 vectors produced by pass  5 Test12= 1.56D-14 3.33D-08 XBig12= 1.45D-05 9.44D-04.
      3 vectors produced by pass  6 Test12= 1.56D-14 3.33D-08 XBig12= 1.97D-07 1.02D-04.
      3 vectors produced by pass  7 Test12= 1.56D-14 3.33D-08 XBig12= 2.57D-09 1.88D-05.
      3 vectors produced by pass  8 Test12= 1.56D-14 3.33D-08 XBig12= 2.81D-11 1.32D-06.
      2 vectors produced by pass  9 Test12= 1.56D-14 3.33D-08 XBig12= 5.97D-13 2.11D-07.
      1 vectors produced by pass 10 Test12= 1.56D-14 3.33D-08 XBig12= 1.59D-14 3.32D-08.
 InvSVY:  IOpt=1 It=  1 EMax= 2.66D-15
 Solved reduced A of dimension    30 with     3 vectors.
 End of Minotr F.D. properties file   721 does not exist.
 End of Minotr F.D. properties file   722 does not exist.
 End of Minotr F.D. properties file   788 does not exist.
 Leave Link 1002 at Thu Mar 13 17:51:57 2025, MaxMem=   104857600 cpu:               0.3 elap:               0.1
 (Enter /opt/linux/rocky/8/software/gaussian/16c01_avx2/g16/l1101.exe)
 Using compressed storage, NAtomX=     6.
 Will process      7 centers per pass.
 Leave Link 1101 at Thu Mar 13 17:51:57 2025, MaxMem=   104857600 cpu:               0.2 elap:               0.1
 (Enter /opt/linux/rocky/8/software/gaussian/16c01_avx2/g16/l1102.exe)
 Symmetrizing basis deriv contribution to polar:
 IMax=3 JMax=2 DiffMx= 0.00D+00
 Leave Link 1102 at Thu Mar 13 17:51:58 2025, MaxMem=   104857600 cpu:               0.0 elap:               0.0
 (Enter /opt/linux/rocky/8/software/gaussian/16c01_avx2/g16/l1110.exe)
 Forming Gx(P) for the SCF density, NAtomX=     6.
 Integral derivatives from FoFJK, PRISM(SPDF).
 Do as many integral derivatives as possible in FoFJK.
 G2DrvN: MDV=     104856858.
 G2DrvN: will do     7 centers at a time, making    1 passes.
 PxScal for G2LodP:  IOpCl= 0 ISclPx=1 IMOff=     1 NMtTot=     4 NTT=    1326 ScalPx= 1.87D+00
 Calling FoFCou, ICntrl=  3107 FMM=F I1Cent=   0 AccDes= 0.00D+00.
 FoFJK:  IHMeth= 1 ICntrl=    3107 DoSepK=F KAlg= 0 I1Cent=           0 FoldK=F
 IRaf=         0 NMat=       1 IRICut=       1 DoRegI=T DoRafI=F ISym2E= 0 IDoP0=0 IntGTp=1.
 FoFCou: FMM=F IPFlag=           0 FMFlag=      100000 FMFlg1=           0
         NFxFlg=           0 DoJE=F BraDBF=F KetDBF=F FulRan=T
         wScrn=  0.000000 ICntrl=      3107 IOpCl=  0 I1Cent=           0 NGrid=           0
         NMat0=    1 NMatS0=      1 NMatT0=    0 NMatD0=    4 NMtDS0=    3 NMtDT0=    0
 Symmetry not used in FoFCou.
 End of G2Drv F.D. properties file   721 does not exist.
 End of G2Drv F.D. properties file   722 does not exist.
 End of G2Drv F.D. properties file   788 does not exist.
 Leave Link 1110 at Thu Mar 13 17:51:59 2025, MaxMem=   104857600 cpu:               0.5 elap:               0.2
 (Enter /opt/linux/rocky/8/software/gaussian/16c01_avx2/g16/l1002.exe)
 Minotr:  Closed shell wavefunction.
          IDoAtm=111111
          Direct CPHF calculation.
          Differentiating once with respect to electric field.
                with respect to dipole field.
          Differentiating once with respect to nuclear coordinates.
          Requested convergence is 1.0D-08 RMS, and 1.0D-07 maximum.
          Secondary convergence is 1.0D-12 RMS, and 1.0D-12 maximum.
          NewPWx=T KeepS1=F KeepF1=F KeepIn=T MapXYZ=F SortEE=F KeepMc=T.
 Keep R1 ints in memory in canonical form, NReq=1719337.
 FoFCou: FMM=F IPFlag=           0 FMFlag=           0 FMFlg1=           0
         NFxFlg=           0 DoJE=F BraDBF=F KetDBF=F FulRan=T
         wScrn=  0.000000 ICntrl=       600 IOpCl=  0 I1Cent=           0 NGrid=           0
         NMat0=    1 NMatS0=   1326 NMatT0=    0 NMatD0=    1 NMtDS0=    0 NMtDT0=    0
 Symmetry not used in FoFCou.
 Two-electron integral symmetry not used.
          MDV=     104857600 using IRadAn=       1.
          Solving linear equations simultaneously, MaxMat=       0.
          There are    21 degrees of freedom in the 1st order CPHF.  IDoFFX=5 NUNeed=    21.
 Will reuse    3 saved solutions.
     15 vectors produced by pass  0 Test12= 2.23D-15 4.76D-09 XBig12= 9.12D-02 1.27D-01.
 AX will form    15 AO Fock derivatives at one time.
     15 vectors produced by pass  1 Test12= 2.23D-15 4.76D-09 XBig12= 8.22D-03 5.69D-02.
     15 vectors produced by pass  2 Test12= 2.23D-15 4.76D-09 XBig12= 1.87D-04 3.30D-03.
     15 vectors produced by pass  3 Test12= 2.23D-15 4.76D-09 XBig12= 1.66D-06 3.17D-04.
     15 vectors produced by pass  4 Test12= 2.23D-15 4.76D-09 XBig12= 8.24D-09 1.97D-05.
     15 vectors produced by pass  5 Test12= 2.23D-15 4.76D-09 XBig12= 4.17D-11 1.58D-06.
     13 vectors produced by pass  6 Test12= 2.23D-15 4.76D-09 XBig12= 2.09D-13 8.56D-08.
 InvSVY:  IOpt=1 It=  1 EMax= 1.11D-15
 Solved reduced A of dimension   103 with    15 vectors.
 FullF1:  Do perturbations      1 to       3.
 Isotropic polarizability for W=    0.000000       17.84 Bohr**3.
 FullF1:  Do perturbations      1 to       6.
 End of Minotr F.D. properties file   721 does not exist.
 End of Minotr F.D. properties file   722 does not exist.
 End of Minotr F.D. properties file   788 does not exist.
 Leave Link 1002 at Thu Mar 13 17:51:59 2025, MaxMem=   104857600 cpu:               0.3 elap:               0.1
 (Enter /opt/linux/rocky/8/software/gaussian/16c01_avx2/g16/l601.exe)
 Copying SCF densities to generalized density rwf, IOpCl= 0 IROHF=0.

 **********************************************************************

            Population analysis using the SCF Density.

 **********************************************************************

 Orbital symmetries:
       Occupied  (A) (A) (A) (A) (A) (A) (A) (A) (A) (A) (A) (A)
       Virtual   (A) (A) (A) (A) (A) (A) (A) (A) (A) (A) (A) (A)
                 (A) (A) (A) (A) (A) (A) (A) (A) (A) (A) (A) (A)
                 (A) (A) (A) (A) (A) (A) (A) (A) (A) (A) (A) (A)
                 (A) (A) (A)
 The electronic state is 1-A.
 Alpha  occ. eigenvalues --  -20.53007 -15.59118 -11.35051  -1.39318  -1.22013
 Alpha  occ. eigenvalues --   -0.85018  -0.75336  -0.67373  -0.60708  -0.57158
 Alpha  occ. eigenvalues --   -0.42856  -0.41490
 Alpha virt. eigenvalues --    0.21169   0.22135   0.25869   0.31745   0.42816
 Alpha virt. eigenvalues --    0.54630   0.75024   0.75708   0.86322   0.92804
 Alpha virt. eigenvalues --    0.96551   0.98912   1.07214   1.12011   1.16985
 Alpha virt. eigenvalues --    1.19860   1.30836   1.33534   1.46143   1.57331
 Alpha virt. eigenvalues --    1.64175   1.74792   1.75793   1.98166   2.06494
 Alpha virt. eigenvalues --    2.15733   2.20320   2.36719   2.47685   2.63455
 Alpha virt. eigenvalues --    2.63884   2.85675   2.99712   3.04806   3.31234
 Alpha virt. eigenvalues --    3.41751   4.16834   4.30940   4.60101
          Condensed to atoms (all electrons):
               1          2          3          4          5          6
     1  H    0.596268   0.412479  -0.052041  -0.108561   0.004753   0.003798
     2  C    0.412479   4.225748   0.612848   0.263636  -0.009396  -0.013647
     3  O   -0.052041   0.612848   8.077592  -0.092350   0.006251   0.002376
     4  N   -0.108561   0.263636  -0.092350   7.197271   0.307621   0.316621
     5  H    0.004753  -0.009396   0.006251   0.307621   0.304744  -0.012338
     6  H    0.003798  -0.013647   0.002376   0.316621  -0.012338   0.314275
 Mulliken charges:
               1
     1  H    0.143304
     2  C    0.508332
     3  O   -0.554677
     4  N   -0.884238
     5  H    0.398365
     6  H    0.388914
 Sum of Mulliken charges =   0.00000
 Mulliken charges with hydrogens summed into heavy atoms:
               1
     2  C    0.651637
     3  O   -0.554677
     4  N   -0.096960
 APT charges:
               1
     1  H   -0.055785
     2  C    1.304422
     3  O   -0.904476
     4  N   -0.853838
     5  H    0.252203
     6  H    0.257475
 Sum of APT charges =   0.00000
 APT charges with hydrogens summed into heavy atoms:
               1
     2  C    1.248637
     3  O   -0.904476
     4  N   -0.344161
 Electronic spatial extent (au):  <R**2>=            143.4363
 Charge=             -0.0000 electrons
 Dipole moment (field-independent basis, Debye):
    X=             -3.9412    Y=              1.1329    Z=              0.0081  Tot=              4.1008
 Quadrupole moment (field-independent basis, Debye-Ang):
   XX=            -17.9626   YY=            -14.7904   ZZ=            -18.5076
   XY=              1.1987   XZ=             -0.0144   YZ=             -0.0015
 Traceless Quadrupole moment (field-independent basis, Debye-Ang):
   XX=             -0.8757   YY=              2.2965   ZZ=             -1.4207
   XY=              1.1987   XZ=             -0.0144   YZ=             -0.0015
 Octapole moment (field-independent basis, Debye-Ang**2):
  XXX=            -12.6700  YYY=             -2.0383  ZZZ=              0.0078  XYY=             -2.8702
  XXY=              1.1489  XXZ=              0.0238  XZZ=              1.5309  YZZ=             -0.0666
  YYZ=              0.0057  XYZ=              0.0009
 Hexadecapole moment (field-independent basis, Debye-Ang**3):
 XXXX=           -104.0643 YYYY=            -30.3871 ZZZZ=            -15.6662 XXXY=             -2.4934
 XXXZ=             -0.0466 YYYX=              3.1962 YYYZ=             -0.0046 ZZZX=             -0.0117
 ZZZY=             -0.0015 XXYY=            -21.5217 XXZZ=            -23.5944 YYZZ=             -8.6627
 XXYZ=              0.0010 YYXZ=             -0.0083 ZZXY=             -0.2832
 N-N= 7.207508901522D+01 E-N=-5.418282249541D+02  KE= 1.685855329555D+02
  Exact polarizability:      24.943      -1.193      19.214      -0.001       0.000       9.368
 Approx polarizability:      21.797      -2.071      16.545       0.001       0.000       9.339
 No NMR shielding tensors so no spin-rotation constants.
 Leave Link  601 at Thu Mar 13 17:51:59 2025, MaxMem=   104857600 cpu:               0.2 elap:               0.1
 (Enter /opt/linux/rocky/8/software/gaussian/16c01_avx2/g16/l701.exe)
 ... and contract with generalized density number  0.
 Compute integral second derivatives.
 Leave Link  701 at Thu Mar 13 17:51:59 2025, MaxMem=   104857600 cpu:               0.2 elap:               0.1
 (Enter /opt/linux/rocky/8/software/gaussian/16c01_avx2/g16/l702.exe)
 L702 exits ... SP integral derivatives will be done elsewhere.
 Leave Link  702 at Thu Mar 13 17:51:59 2025, MaxMem=   104857600 cpu:               0.0 elap:               0.0
 (Enter /opt/linux/rocky/8/software/gaussian/16c01_avx2/g16/l703.exe)
 Integral derivatives from FoFJK, PRISM(SPDF).
 Compute integral second derivatives, UseDBF=F ICtDFT=           0.
 Calling FoFJK, ICntrl=    100127 FMM=F ISym2X=0 I1Cent= 0 IOpClX= 0 NMat=1 NMatS=1 NMatT=0.
 FoFJK:  IHMeth= 1 ICntrl=  100127 DoSepK=F KAlg= 0 I1Cent=           0 FoldK=F
 IRaf=         0 NMat=       1 IRICut=       1 DoRegI=T DoRafI=F ISym2E= 0 IDoP0=0 IntGTp=1.
 FoFCou: FMM=F IPFlag=           0 FMFlag=      100000 FMFlg1=         800
         NFxFlg=           0 DoJE=F BraDBF=F KetDBF=F FulRan=T
         wScrn=  0.000000 ICntrl=    100127 IOpCl=  0 I1Cent=           0 NGrid=           0
         NMat0=    1 NMatS0=      1 NMatT0=    0 NMatD0=    1 NMtDS0=    0 NMtDT0=    0
 Symmetry not used in FoFCou.
 Leave Link  703 at Thu Mar 13 17:52:00 2025, MaxMem=   104857600 cpu:               0.9 elap:               0.2
 (Enter /opt/linux/rocky/8/software/gaussian/16c01_avx2/g16/l716.exe)
 Dipole        =-1.55059089D+00 4.45697848D-01 3.17003931D-03
 Polarizability= 2.49425832D+01-1.19317454D+00 1.92141810D+01
                -6.37721027D-04 2.16803445D-04 9.36798565D+00
 HyperPolar    = 1.01926061D+00 3.40426671D+01-1.67932044D+01
                 2.44583370D+01 1.11882806D-01 2.35138591D-03
                 5.30410605D-02-3.51254729D+00 1.12326053D+00
                -2.93494567D-03
 Full mass-weighted force constant matrix:
 Low frequencies ---   -5.9662   -3.0023   -0.0016   -0.0015   -0.0004    1.2804
 Low frequencies ---  108.5328  617.7180  673.4557
 Diagonal vibrational polarizability:
        6.3492506       2.0315912     767.2240048
 Diagonal vibrational hyperpolarizability:
      -18.5794543      -3.5093436      12.0794864
 Harmonic frequencies (cm**-1), IR intensities (KM/Mole), Raman scattering
 activities (A**4/AMU), depolarization ratios for plane and unpolarized
 incident light, reduced masses (AMU), force constants (mDyne/A),
 and normal coordinates:
                      1                      2                      3
                      A                      A                      A
 Frequencies --    108.5327               617.7180               673.4557
 Red. masses --      1.2215                 2.5004                 1.1964
 Frc consts  --      0.0085                 0.5621                 0.3197
 IR Inten    --    334.9694                17.3027                32.5090
 Raman Activ --      0.3185                 1.4127                 0.8420
 Depolar (P) --      0.7497                 0.6411                 0.7500
 Depolar (U) --      0.8569                 0.7813                 0.8571
  Atom  AN      X      Y      Z        X      Y      Z        X      Y      Z
     1   1     0.00   0.00  -0.00    -0.14  -0.20   0.00     0.00   0.00   0.23
     2   6     0.00   0.00   0.01    -0.01  -0.20   0.00     0.00   0.00   0.10
     3   8    -0.00  -0.00   0.02     0.19   0.11  -0.00    -0.00  -0.00  -0.06
     4   7    -0.00  -0.00  -0.13    -0.16   0.02  -0.00     0.00  -0.00  -0.05
     5   1     0.00   0.00   0.53    -0.75   0.09   0.00     0.00   0.00   0.77
     6   1     0.00  -0.00   0.84     0.15   0.47  -0.00    -0.00   0.00  -0.58
                      4                      5                      6
                      A                      A                      A
 Frequencies --   1160.1851              1182.7732              1378.8956
 Red. masses --      1.7817                 1.5680                 2.6738
 Frc consts  --      1.4130                 1.2924                 2.9953
 IR Inten    --      8.3208                 2.5095               155.0483
 Raman Activ --      4.1348                 2.5688                 1.9294
 Depolar (P) --      0.3734                 0.7500                 0.2009
 Depolar (U) --      0.5438                 0.8571                 0.3346
  Atom  AN      X      Y      Z        X      Y      Z        X      Y      Z
     1   1    -0.34  -0.01   0.01     0.00  -0.00   0.96     0.34   0.26   0.00
     2   6    -0.06  -0.02  -0.00     0.00   0.00  -0.21     0.18   0.25  -0.00
     3   8    -0.12   0.02   0.00     0.00  -0.00   0.06    -0.02  -0.04   0.00
     4   7     0.19  -0.05   0.00    -0.00   0.00   0.04    -0.11  -0.19   0.00
     5   1    -0.42   0.03   0.00     0.00  -0.00   0.14    -0.80  -0.12  -0.00
     6   1     0.61   0.53   0.00    -0.00  -0.00   0.01     0.07   0.10   0.00
                      7                      8                      9
                      A                      A                      A
 Frequencies --   1563.4230              1789.1484              1998.7910
 Red. masses --      1.2233                 1.2202                 7.2876
 Frc consts  --      1.7617                 2.3013                17.1543
 IR Inten    --     10.3352                84.0267               514.9030
 Raman Activ --      6.3511                 4.3839                 8.9576
 Depolar (P) --      0.4378                 0.6563                 0.3716
 Depolar (U) --      0.6090                 0.7925                 0.5418
  Atom  AN      X      Y      Z        X      Y      Z        X      Y      Z
     1   1     0.97  -0.08  -0.00    -0.05   0.06  -0.00    -0.49  -0.27   0.00
     2   6    -0.04  -0.07   0.00    -0.00   0.05   0.00     0.55  -0.26   0.00
     3   8    -0.06   0.07  -0.00     0.03  -0.02  -0.00    -0.32   0.19  -0.00
     4   7     0.02  -0.02   0.00    -0.10  -0.05   0.00    -0.10   0.02   0.00
     5   1     0.06  -0.03  -0.00     0.65  -0.14  -0.00     0.39  -0.04  -0.00
     6   1     0.12   0.11  -0.00     0.38   0.63  -0.00    -0.09   0.04  -0.00
                     10                     11                     12
                      A                      A                      A
 Frequencies --   3214.2336              3838.2691              3972.9255
 Red. masses --      1.0895                 1.0471                 1.1060
 Frc consts  --      6.6315                 9.0890                10.2859
 IR Inten    --    103.7584                57.9453                63.4831
 Raman Activ --     95.3206                79.5685                43.6716
 Depolar (P) --      0.2930                 0.1361                 0.7235
 Depolar (U) --      0.4532                 0.2396                 0.8396
  Atom  AN      X      Y      Z        X      Y      Z        X      Y      Z
     1   1     0.01   1.00   0.00    -0.00   0.00  -0.00    -0.00  -0.01  -0.00
     2   6     0.00  -0.09  -0.00     0.00   0.00   0.00     0.00   0.00   0.00
     3   8    -0.00   0.00   0.00     0.00  -0.00  -0.00     0.00  -0.00   0.00
     4   7     0.00   0.00   0.00    -0.05  -0.03   0.00    -0.04   0.08   0.00
     5   1    -0.00  -0.01   0.00     0.08   0.77  -0.00    -0.07  -0.62   0.00
     6   1    -0.00  -0.02  -0.00     0.51  -0.36  -0.00     0.64  -0.45  -0.00

 -------------------
 - Thermochemistry -
 -------------------
 Temperature   298.150 Kelvin.  Pressure   1.00000 Atm.
 Atom     1 has atomic number  1 and mass   1.00783
 Atom     2 has atomic number  6 and mass  12.00000
 Atom     3 has atomic number  8 and mass  15.99491
 Atom     4 has atomic number  7 and mass  14.00307
 Atom     5 has atomic number  1 and mass   1.00783
 Atom     6 has atomic number  1 and mass   1.00783
 Molecular mass:    45.02146 amu.
 Principal axes and moments of inertia in atomic units:
                           1         2         3
     Eigenvalues --    23.86846 155.53448 179.40287
           X            0.99980   0.01985  -0.00012
           Y           -0.01985   0.99980  -0.00007
           Z            0.00012   0.00007   1.00000
 This molecule is an asymmetric top.
 Rotational symmetry number  1.
 Rotational temperatures (Kelvin)      3.62880     0.55688     0.48279
 Rotational constants (GHZ):          75.61196    11.60348    10.05971
 Zero-point vibrational energy     128588.7 (Joules/Mol)
                                   30.73344 (Kcal/Mol)
 Warning -- explicit consideration of   2 degrees of freedom as
           vibrations may cause significant error
 Vibrational temperatures:    156.15   888.76   968.95  1669.25  1701.75
          (Kelvin)           1983.92  2249.42  2574.19  2875.81  4624.57
                             5522.41  5716.15
 
 Zero-point correction=                           0.048977 (Hartree/Particle)
 Thermal correction to Energy=                    0.052854
 Thermal correction to Enthalpy=                  0.053798
 Thermal correction to Gibbs Free Energy=         0.024033
 Sum of electronic and zero-point Energies=           -168.881726
 Sum of electronic and thermal Energies=              -168.877849
 Sum of electronic and thermal Enthalpies=            -168.876905
 Sum of electronic and thermal Free Energies=         -168.906670
 
                     E (Thermal)             CV                S
                      KCal/Mol        Cal/Mol-Kelvin    Cal/Mol-Kelvin
 Total                   33.166             10.440             62.646
 Electronic               0.000              0.000              0.000
 Translational            0.889              2.981             37.339
 Rotational               0.889              2.981             21.126
 Vibrational             31.389              4.479              4.181
 Vibration     1          0.606              1.942              3.295
 Vibration     2          0.977              0.994              0.420
                       Q            Log10(Q)             Ln(Q)
 Total Bot       0.882686D-11        -11.054194        -25.453222
 Total V=0       0.297558D+12         11.473572         26.418876
 Vib (Bot)       0.804706D-22        -22.094363        -50.874151
 Vib (Bot)    1  0.188768D+01          0.275928          0.635348
 Vib (Bot)    2  0.237313D+00         -0.624679         -1.438376
 Vib (V=0)       0.271271D+01          0.433403          0.997947
 Vib (V=0)    1  0.245278D+01          0.389658          0.897220
 Vib (V=0)    2  0.105346D+01          0.022618          0.052080
 Electronic      0.100000D+01          0.000000          0.000000
 Translational   0.118736D+08          7.074583         16.289830
 Rotational      0.923817D+04          3.965586          9.131099
 
                                                        formamide gs structure
                                                             IR Spectrum
 
     3    3                   3                                      1     1       1    1     11                                     
     9    8                   2                                      9     7       5    3     11               6 6               1   
     7    3                   1                                      9     8       6    7     86               7 1               0   
     3    8                   4                                      9     9       3    9     30               3 8               9   
 
     X    X                   X                                      X     X       X    X     XX               X X               X   
     X    X                   X                                      X     X            X                                        X   
                              X                                      X     X            X                                        X   
                              X                                      X                  X                                        X   
                                                                     X                  X                                        X   
                                                                     X                  X                                        X   
                                                                     X                                                           X   
                                                                     X                                                           X   
                                                                     X                                                           X   
                                                                     X                                                           X   
                                                                     X                                                           X   
                                                                     X                                                           X   
                                                                     X                                                           X   
                                                                     X                                                               
                                                                     X                                                               
                                                                     X                                                               
                                                                     X                                                               
                                                                     X                                                               
                                                                     X                                                               
                                                                     X                                                               
 
 
                                                        formamide gs structure
                                                            Raman Spectrum
 
     3    3                   3                                      1     1       1    1     11                                     
     9    8                   2                                      9     7       5    3     11               6 6               1   
     7    3                   1                                      9     8       6    7     86               7 1               0   
     3    8                   4                                      9     9       3    9     30               3 8               9   
 
     X    X                   X                                      X     X       X    X     XX               X X               X   
     X    X                   X                                      X                                                               
     X    X                   X                                                                                                      
     X    X                   X                                                                                                      
     X    X                   X                                                                                                      
     X    X                   X                                                                                                      
     X    X                   X                                                                                                      
     X    X                   X                                                                                                      
[...]
     16  0.392418D+00
     17 -0.221339D+00  0.230589D+00
     18 -0.111737D-02  0.719774D-03  0.522323D-02
 FormGI is forming the generalized inverse of G from B-inverse, IUseBI=4.
 Force constants in internal coordinates: 
                1             2             3             4             5 
      1  0.366117D+00
      2  0.351560D-01  0.101396D+01
      3  0.160028D-01  0.101788D+00  0.529199D+00
      4 -0.691105D-03 -0.136898D-02  0.617809D-02  0.539796D+00
      5  0.822215D-03 -0.921197D-03  0.174581D-02 -0.165834D-02  0.547170D+00
      6  0.223538D-02  0.140475D-01 -0.344634D-01  0.973205D-03 -0.251955D-02
      7  0.135110D-01 -0.456317D-01  0.101341D-01  0.664857D-02 -0.350289D-02
      8 -0.157464D-01  0.315842D-01  0.243293D-01 -0.762177D-02  0.602244D-02
      9  0.332513D-02  0.891433D-04  0.277795D-02  0.760867D-02 -0.887116D-02
     10 -0.367424D-03  0.417514D-02  0.112244D-01 -0.101534D-01  0.337811D-02
     11 -0.295763D-02 -0.426447D-02 -0.140009D-01  0.254493D-02  0.549330D-02
     12 -0.368422D-05  0.322184D-04 -0.109635D-03 -0.227649D-04 -0.264112D-04
     13  0.283960D-05 -0.196598D-04  0.152883D-03  0.397684D-04  0.430596D-04
     14 -0.101559D-04  0.316089D-04 -0.146251D-03 -0.348151D-04 -0.377601D-04
     15 -0.363211D-05 -0.202693D-04  0.116267D-03  0.277182D-04  0.317107D-04
                6             7             8             9            10 
      6  0.139940D+00
      7 -0.419375D-01  0.136771D+00
      8 -0.980021D-01 -0.948330D-01  0.192835D+00
      9  0.529193D-02  0.213160D-01 -0.266079D-01  0.889900D-01
     10 -0.751564D-02 -0.171110D-01  0.246266D-01 -0.480479D-01  0.925511D-01
     11  0.222358D-02 -0.420483D-02  0.198124D-02 -0.409415D-01 -0.445026D-01
     12  0.116058D-04 -0.181503D-04  0.226994D-04 -0.325778D-04  0.183251D-04
     13 -0.573650D-05  0.125963D-04  0.754010D-05 -0.153570D-04  0.517832D-05
     14  0.571784D-05 -0.292770D-04  0.796628D-05 -0.408722D-04  0.316495D-04
     15 -0.116245D-04  0.146964D-05 -0.719303D-05 -0.236514D-04  0.185028D-04
               11            12            13            14            15 
     11  0.854428D-01
     12 -0.997176D-05  0.343845D-01
     13 -0.750614D-05  0.291761D-01  0.253737D-01
     14  0.128521D-04 -0.207421D-01 -0.199618D-01  0.324665D-01
     15  0.153178D-04 -0.259506D-01 -0.237641D-01  0.332469D-01  0.354333D-01
 Leave Link  716 at Thu Mar 13 17:52:00 2025, MaxMem=   104857600 cpu:               0.2 elap:               0.1
 (Enter /opt/linux/rocky/8/software/gaussian/16c01_avx2/g16/l103.exe)

 GradGradGradGradGradGradGradGradGradGradGradGradGradGradGradGradGradGrad
 Berny optimization.
 Red2BG is reusing G-inverse.
 Internal  Forces:  Max     0.000024988 RMS     0.000008295
 Search for a local minimum.
 Step number   1 out of a maximum of    2
 All quantities printed in internal units (Hartrees-Bohrs-Radians)
 Second derivative matrix not updated -- analytic derivatives used.
 The second derivative matrix:
                          R1        R2        R3        R4        R5
           R1           0.36612
           R2           0.03516   1.01396
           R3           0.01600   0.10179   0.52920
           R4          -0.00069  -0.00137   0.00618   0.53980
           R5           0.00082  -0.00092   0.00175  -0.00166   0.54717
           A1           0.00224   0.01405  -0.03446   0.00097  -0.00252
           A2           0.01351  -0.04563   0.01013   0.00665  -0.00350
           A3          -0.01575   0.03158   0.02433  -0.00762   0.00602
           A4           0.00333   0.00009   0.00278   0.00761  -0.00887
           A5          -0.00037   0.00418   0.01122  -0.01015   0.00338
           A6          -0.00296  -0.00426  -0.01400   0.00254   0.00549
           D1          -0.00000   0.00003  -0.00011  -0.00002  -0.00003
           D2           0.00000  -0.00002   0.00015   0.00004   0.00004
           D3          -0.00001   0.00003  -0.00015  -0.00003  -0.00004
           D4          -0.00000  -0.00002   0.00012   0.00003   0.00003
                          A1        A2        A3        A4        A5
           A1           0.13994
           A2          -0.04194   0.13677
           A3          -0.09800  -0.09483   0.19284
           A4           0.00529   0.02132  -0.02661   0.08899
           A5          -0.00752  -0.01711   0.02463  -0.04805   0.09255
           A6           0.00222  -0.00420   0.00198  -0.04094  -0.04450
           D1           0.00001  -0.00002   0.00002  -0.00003   0.00002
           D2          -0.00001   0.00001   0.00001  -0.00002   0.00001
           D3           0.00001  -0.00003   0.00001  -0.00004   0.00003
           D4          -0.00001   0.00000  -0.00001  -0.00002   0.00002
                          A6        D1        D2        D3        D4
           A6           0.08544
           D1          -0.00001   0.03438
           D2          -0.00001   0.02918   0.02537
           D3           0.00001  -0.02074  -0.01996   0.03247
           D4           0.00002  -0.02595  -0.02376   0.03325   0.03543
 ITU=  0
     Eigenvalues ---    0.00046   0.01836   0.10884   0.11975   0.13012
     Eigenvalues ---    0.17743   0.28896   0.37089   0.51523   0.54148
     Eigenvalues ---    0.54840   1.04052
 Angle between quadratic step and forces=  84.76 degrees.
 Linear search not attempted -- first point.
 Iteration  1 RMS(Cart)=  0.00080550 RMS(Int)=  0.00000239
 Iteration  2 RMS(Cart)=  0.00000151 RMS(Int)=  0.00000188
 Iteration  3 RMS(Cart)=  0.00000000 RMS(Int)=  0.00000188
 ITry= 1 IFail=0 DXMaxC= 2.52D-03 DCOld= 1.00D+10 DXMaxT= 3.00D-01 DXLimC= 3.00D+00 Rises=F
 Variable       Old X    -DE/DX   Delta X   Delta X   Delta X     New X
                                 (Linear)    (Quad)   (Total)
    R1        2.06122   0.00000   0.00000   0.00000   0.00000   2.06122
    R2        2.25419  -0.00002   0.00000  -0.00002  -0.00002   2.25417
    R3        2.54813   0.00002   0.00000   0.00005   0.00005   2.54818
    R4        1.88125   0.00001   0.00000   0.00001   0.00001   1.88127
    R5        1.87623   0.00001   0.00000   0.00002   0.00002   1.87625
    A1        2.13525   0.00000   0.00000   0.00002   0.00002   2.13527
    A2        1.96713   0.00000   0.00000  -0.00001  -0.00001   1.96713
    A3        2.18080  -0.00000   0.00000  -0.00001  -0.00001   2.18079
    A4        2.08175   0.00000   0.00000   0.00001   0.00001   2.08176
    A5        2.12618   0.00000   0.00000   0.00001   0.00001   2.12619
    A6        2.07524  -0.00000   0.00000   0.00000  -0.00000   2.07524
    D1       -3.13950  -0.00000   0.00000  -0.00207  -0.00207  -3.14158
    D2       -0.00340   0.00000   0.00000   0.00338   0.00338  -0.00003
    D3        0.00242  -0.00000   0.00000  -0.00240  -0.00240   0.00002
    D4        3.13852   0.00000   0.00000   0.00305   0.00305   3.14157
         Item               Value     Threshold  Converged?
 Maximum Force            0.000025     0.000450     YES
 RMS     Force            0.000008     0.000300     YES
 Maximum Displacement     0.002515     0.001800     NO 
 RMS     Displacement     0.000805     0.001200     YES
 Predicted change in Energy=-8.138316D-09
                           ----------------------------
                           ! Non-Optimized Parameters !
                           ! (Angstroms and Degrees)  !
 --------------------------                            --------------------------
 ! Name  Definition              Value          Derivative Info.                !
 --------------------------------------------------------------------------------
 ! R1    R(1,2)                  1.0908         -DE/DX =    0.0                 !
 ! R2    R(2,3)                  1.1929         -DE/DX =    0.0                 !
 ! R3    R(2,4)                  1.3484         -DE/DX =    0.0                 !
 ! R4    R(4,5)                  0.9955         -DE/DX =    0.0                 !
 ! R5    R(4,6)                  0.9929         -DE/DX =    0.0                 !
 ! A1    A(1,2,3)              122.3417         -DE/DX =    0.0                 !
 ! A2    A(1,2,4)              112.7081         -DE/DX =    0.0                 !
 ! A3    A(3,2,4)              124.9502         -DE/DX =    0.0                 !
 ! A4    A(2,4,5)              119.276          -DE/DX =    0.0                 !
 ! A5    A(2,4,6)              121.8217         -DE/DX =    0.0                 !
 ! A6    A(5,4,6)              118.9022         -DE/DX =    0.0                 !
 ! D1    D(1,2,4,5)           -179.9991         -DE/DX =    0.0                 !
 ! D2    D(1,2,4,6)             -0.0015         -DE/DX =    0.0                 !
 ! D3    D(3,2,4,5)              0.001          -DE/DX =    0.0                 !
 ! D4    D(3,2,4,6)            179.9987         -DE/DX =    0.0                 !
 --------------------------------------------------------------------------------
 GradGradGradGradGradGradGradGradGradGradGradGradGradGradGradGradGradGrad

 Leave Link  103 at Thu Mar 13 17:52:00 2025, MaxMem=   104857600 cpu:               0.0 elap:               0.0
 (Enter /opt/linux/rocky/8/software/gaussian/16c01_avx2/g16/l9999.exe)

 ----------------------------------------------------------------------

 Electric dipole moment (input orientation):
 (Debye = 10**-18 statcoulomb cm , SI units = C m)
                  (au)            (Debye)         (10**-30 SI)
   Tot        0.161338D+01      0.410080D+01      0.136788D+02
   x         -0.155059D+01     -0.394121D+01     -0.131465D+02
   y          0.445698D+00      0.113285D+01      0.377879D+01
   z          0.317004D-02      0.805744D-02      0.268767D-01

 Dipole polarizability, Alpha (input orientation).
 (esu units = cm**3 , SI units = C**2 m**2 J**-1)
 Alpha(0;0):
               (au)            (10**-24 esu)      (10**-40 SI)
   iso        0.178416D+02      0.264385D+01      0.294168D+01
   aniso      0.137999D+02      0.204493D+01      0.227529D+01
   xx         0.249426D+02      0.369611D+01      0.411248D+01
   yx        -0.119318D+01     -0.176810D+00     -0.196728D+00
   yy         0.192142D+02      0.284725D+01      0.316799D+01
   zx        -0.637721D-03     -0.945005D-04     -0.105146D-03
   zy         0.216804D-03      0.321270D-04      0.357461D-04
   zz         0.936799D+01      0.138819D+01      0.154457D+01

 First dipole hyperpolarizability, Beta (input orientation).
 ||, _|_  parallel and perpendicular components, (z) with respect to z axis,
 vector components x,y,z.  Values do not include the 1/n! factor of 1/2.
 (esu units = statvolt**-1 cm**4 , SI units = C**3 m**3 J**-2)
 Beta(0;0,0):
               (au)            (10**-30 esu)      (10**-50 SI)
   || (z)     0.971934D-01      0.839675D-03      0.311637D-03
   _|_(z)     0.323978D-01      0.279892D-03      0.103879D-03
   x         -0.578594D+02     -0.499861D+00     -0.185518D+00
   y          0.178873D+03      0.154532D+01      0.573531D+00
   z          0.485967D+00      0.419837D-02      0.155819D-02
   ||         0.375997D+02      0.324832D+00      0.120558D+00
   xxx        0.101928D+01      0.880575D-02      0.326817D-02
   xxy        0.340427D+02      0.294102D+00      0.109153D+00
   yxy       -0.167932D+02     -0.145080D+00     -0.538451D-01
   yyy        0.244583D+02      0.211301D+00      0.784223D-01
   xxz        0.111883D+00      0.966580D-03      0.358737D-03
   yxz        0.235138D-02      0.203141D-04      0.753936D-05
   yyz        0.530411D-01      0.458233D-03      0.170069D-03
   zxz       -0.351255D+01     -0.303457D-01     -0.112625D-01
   zyz        0.112326D+01      0.970410D-02      0.360158D-02
   zzz       -0.293495D-02     -0.253556D-04     -0.941050D-05

 ----------------------------------------------------------------------

 Dipole orientation:
     1          0.75978916          2.64646862          0.49191495
     6          0.21537190          0.74855846         -0.09984714
     8          0.05157647          0.16265778         -2.27039545
     7         -0.23610559         -0.80426784          1.86938796
     1         -0.74397636         -2.58527458          1.53894065
     1         -0.06792226         -0.22393762          3.64567120

 Electric dipole moment (dipole orientation):
 (Debye = 10**-18 statcoulomb cm , SI units = C m)
                  (au)            (Debye)         (10**-30 SI)
   Tot        0.161338D+01      0.410080D+01      0.136788D+02
   x          0.000000D+00      0.000000D+00      0.000000D+00
   y          0.000000D+00      0.000000D+00      0.000000D+00
   z          0.161338D+01      0.410080D+01      0.136788D+02

 Dipole polarizability, Alpha (dipole orientation).
 (esu units = cm**3 , SI units = C**2 m**2 J**-1)
 Alpha(0;0):
               (au)            (10**-24 esu)      (10**-40 SI)
   iso        0.178416D+02      0.264385D+01      0.294168D+01
   aniso      0.137999D+02      0.204493D+01      0.227529D+01
   xx         0.101050D+02      0.149741D+01      0.166609D+01
   yx         0.256289D+01      0.379782D+00      0.422564D+00
   yy         0.182808D+02      0.270893D+01      0.301410D+01
   zx        -0.169979D+00     -0.251883D-01     -0.280258D-01
   zy        -0.481624D+00     -0.713693D-01     -0.794091D-01
   zz         0.251389D+02      0.372521D+01      0.414485D+01

 First dipole hyperpolarizability, Beta (dipole orientation).
 ||, _|_  parallel and perpendicular components, (z) with respect to z axis,
 vector components x,y,z.  Values do not include the 1/n! factor of 1/2.
 (esu units = statvolt**-1 cm**4 , SI units = C**3 m**3 J**-2)
 Beta(0;0,0):
               (au)            (10**-30 esu)      (10**-50 SI)
   || (z)     0.210045D+02      0.181463D+00      0.673481D-01
   _|_(z)     0.700151D+01      0.604876D-01      0.224494D-01
   x          0.433442D+02      0.374460D+00      0.138977D+00
   y          0.149783D+03      0.129401D+01      0.480259D+00
   z          0.105023D+03      0.907313D+00      0.336740D+00
   ||         0.375997D+02      0.324832D+00      0.120558D+00
   xxx        0.419050D+00      0.362027D-02      0.134363D-02
   xxy        0.131487D+01      0.113594D-01      0.421594D-02
   yxy        0.416235D+01      0.359595D-01      0.133460D-01
   yyy        0.145143D+02      0.125392D+00      0.465381D-01
   xxz        0.350747D+01      0.303018D-01      0.112462D-01
   yxz       -0.533283D+00     -0.460715D-02     -0.170990D-02
   yyz        0.213369D+01      0.184334D-01      0.684138D-02
   zxz        0.986667D+01      0.852404D-01      0.316361D-01
   zyz        0.340985D+02      0.294585D+00      0.109332D+00
   zzz        0.293664D+02      0.253703D+00      0.941592D-01

 ----------------------------------------------------------------------
 Unable to Open any file for archive entry.
 1\1\GINC-A012\Freq\RHF\6-31G(d)\C1H3N1O1\DJO04747\13-Mar-2025\0\\#P Ge
 om=AllCheck Guess=TCheck SCRF=Check GenChk RHF/6-31G(d) Freq\\formamid
 e gs structure\\0,1\H,0.152325,1.472235,0.000051\C,0.164649,0.381553,0
 .000002\O,1.179626,-0.245149,0.000092\N,-1.073277,-0.153013,-0.000563\
 H,-1.17595,-1.143219,0.001157\H,-1.888337,0.413945,0.001983\\Version=E
 S64L-G16RevC.01\State=1-A\HF=-168.9307027\RMSD=2.049e-10\RMSF=1.048e-0
 5\ZeroPoint=0.0489768\Thermal=0.0528536\ETot=-168.8778491\HTot=-168.87
 69049\GTot=-168.9066702\Dipole=-1.5505908,0.4456981,0.00317\DipoleDeri
 v=0.0219604,0.0200262,0.000059,0.0048497,-0.2363226,-0.0000554,0.00003
 25,-0.0000198,0.0470075,2.2546376,-0.0293403,0.0007109,0.0396164,1.145
 0723,-0.000028,0.0006148,-0.000358,0.513556,-1.3913725,0.1858907,-0.00
 01822,0.4624733,-0.8125208,0.0001991,0.0000422,0.0001799,-0.5095356,-1
 .2553026,-0.1815993,-0.0010504,-0.522051,-0.4632177,-0.0001012,-0.0032
 04,-0.0000706,-0.8429949,0.1563887,0.0229713,0.0001742,0.021062,0.2078
 186,0.0001766,0.0009336,0.0005506,0.3924016,0.2136884,-0.0179487,0.000
 2885,-0.0059505,0.1591702,-0.0001911,0.0015809,-0.0002821,0.3995654\Po
 lar=24.9425828,-1.1931754,19.2141813,-0.0006377,0.0002168,9.3679857\Po
 larDeriv=0.032645,1.4729474,-0.5430284,0.0001355,-0.0001267,0.0125986,
 0.7225359,0.719948,9.7018006,-0.0001256,-0.0000261,0.5799329,-0.002431
 4,-0.0003062,-0.0017888,0.2447669,1.9441822,-0.0010872,-4.9837119,1.25
 94783,2.0642468,-0.0050954,-0.0010993,-0.3313674,3.746928,-2.350351,-6
 .9885727,-0.0009678,0.0034574,0.4672465,0.0062504,-0.0014846,0.0068552
 ,-0.7311272,0.5415734,0.0046259,11.3330552,-1.617869,-0.9460618,0.0048
 171,0.000532,0.4020219,-3.5924162,3.6071693,-1.8013575,-0.001523,-0.00
 04022,-0.6965995,-0.0019177,-0.0004065,-0.0010727,3.6143615,-1.4477858
 ,0.0004851,1.3101024,-1.9410372,0.8325153,-0.0141518,0.0024925,-0.1647
 223,-2.1471636,2.5107086,4.3753348,0.0050582,-0.0155383,-0.3307476,-0.
 0221932,0.0084318,-0.0233261,-2.1124143,-0.4589212,-0.0149616,-1.32232
 69,-0.9579612,-0.120767,0.0037065,0.0000504,0.0382168,-1.529836,-2.174
 5311,-7.0959594,0.0028966,0.0064232,0.0800124,0.0040882,0.0019433,0.01
 20846,-0.1736656,-1.2561487,0.0042293,-6.3697639,1.7844418,-1.2869049,
 0.010588,-0.001849,0.0432524,2.7999519,-2.3129438,1.8087541,-0.0053384
 ,0.0060861,-0.0998446,0.0162037,-0.0081778,0.0072478,-0.8419212,0.6771
 002,0.0067086\HyperPolar=1.0192761,34.0426619,-16.793211,24.4583446,0.
 1118828,0.0023514,0.0530411,-3.5125471,1.1232611,-0.0029349\Quadrupole
 =-0.6510861,1.7073697,-1.0562836,0.8911969,-0.010697,-0.0011244\PG=C01
  [X(C1H3N1O1)]\NImag=0\\0.08478282,0.00229146,0.36620467,0.00000645,0.
 00001691,0.03266813,-0.07620854,-0.01835277,0.00003001,1.07824693,-0.0
 0814156,-0.32279493,0.00000788,-0.21644571,0.93600077,-0.00000290,-0.0
 0002321,-0.07962496,-0.00001963,0.00002954,0.23925987,-0.00400250,0.02
 567873,-0.00000641,-0.64812748,0.35818563,-0.00000432,0.76977060,0.049
 38014,-0.02470113,-0.00000239,0.34246136,-0.37602875,0.00000226,-0.403
 26164,0.34826137,-0.00000344,0.00000562,0.02573736,-0.00002142,0.00002
 676,-0.09207576,0.00006839,-0.00002800,0.03937484,0.00055860,-0.004845
 30,-0.00001118,-0.34980628,-0.11783876,-0.00013812,-0.11443623,0.00904
 749,-0.00003359,0.94759133,-0.04178426,-0.01905694,-0.00002651,-0.0912
 5800,-0.24641207,-0.00011971,0.02220266,0.05202825,0.00002861,-0.05240
 024,0.97236283,0.00001633,-0.00000114,0.01548908,0.00029806,0.00000842
 ,-0.05742711,-0.00011598,0.00006851,0.02476508,-0.00150816,-0.00021911
 ,0.01698745,-0.00600613,-0.00331863,-0.00000475,0.01095237,-0.04516277
 ,0.00008672,0.00226920,0.00778779,-0.00001585,-0.09815097,-0.04216606,
 0.00020945,0.07794270,-0.00215310,0.00100758,0.00000290,-0.00223695,-0
 .01258450,0.00002952,0.00294979,0.00173106,-0.00001141,-0.04253928,-0.
 51644429,0.00079511,0.05058095,0.53427115,-0.00001705,-0.00000661,0.00
 732540,-0.00011130,-0.00008589,0.00079044,0.00004470,-0.00001466,-0.00
 627339,0.00030543,0.00109270,-0.00494852,-0.00016881,-0.00085634,0.009
 41773,0.00087575,-0.00145349,-0.00001412,-0.01505698,0.02940318,0.0000
 7826,-0.00547359,-0.00541513,0.00000591,-0.38575644,0.20540590,0.00110
 030,0.01299284,-0.00660142,-0.00005298,0.39241842,0.00040732,-0.000659
 24,0.00000121,-0.01416792,0.02181948,0.00008159,-0.00575517,-0.0012907
 9,-0.00002159,0.20857608,-0.24247777,-0.00065179,0.03227873,-0.0079810
 1,-0.00012921,-0.22133904,0.23058934,0.00000062,0.00000844,-0.00159500
 ,-0.00017571,0.00001329,-0.01092247,0.00001362,-0.00002573,0.00847187,
 0.00138561,-0.00075599,0.00513402,-0.00010676,0.00004022,-0.00631166,-
 0.00111737,0.00071977,0.00522323\\0.00000002,-0.00000057,0.00000088,-0
 .00003643,-0.00000411,-0.00000088,0.00001415,-0.00000681,0.00000066,0.
 00001235,0.00000818,-0.00000405,0.00000206,0.00000768,0.00000181,0.000
 00785,-0.00000438,0.00000157\\\@
 The archive entry for this job was punched.


 The best way to pay for a lovely moment is to enjoy it.
 -- Richard Bach
 Job cpu time:       0 days  0 hours  0 minutes  4.1 seconds.
 Elapsed time:       0 days  0 hours  0 minutes  1.3 seconds.
 File lengths (MBytes):  RWF=      6 Int=      0 D2E=      0 Chk=      2 Scr=      1
 Normal termination of Gaussian 16 at Thu Mar 13 17:52:00 2025.
